# Solver information
# Time        	U_solver      	Ux_initial    	Ux_final      	Ux_iters      	Uy_initial    	Uy_final      	Uy_iters      	Uz_initial    	Uz_final      	Uz_iters      	U_converged   	cA_solver     	cA_initial    	cA_final      	cA_iters      	cA_converged  	cB_solver     	cB_initial    	cB_final      	cB_iters      	cB_converged  	p_solver      	p_initial     	p_final       	p_iters       	p_converged   
0.0001        	smoothSolver	1.000000e+00	9.661990e-08	2	0.000000e+00	0.000000e+00	0	1.000000e+00	2.075430e-07	2	false	smoothSolver	1.000000e+00	3.980820e-07	1	true	smoothSolver	1.000000e+00	7.856200e-07	1	true	DICPCG	1.000000e+00	3.032010e-02	73	true
0.0002        	smoothSolver	8.654880e-01	6.256600e-08	2	3.331330e-01	6.990280e-08	2	2.019410e-01	3.207800e-08	2	false	smoothSolver	2.006780e-01	7.554750e-08	1	true	smoothSolver	1.452110e-01	1.039470e-07	1	true	DICPCG	1.323090e-02	4.029230e-04	73	true
0.0003        	smoothSolver	8.367340e-01	6.039990e-08	2	2.026460e-01	4.086610e-08	2	7.903150e-02	1.240460e-08	2	false	smoothSolver	1.117440e-01	6.370060e-08	1	true	smoothSolver	7.829320e-02	8.352540e-08	1	true	DICPCG	9.031040e-03	4.346870e-04	72	true
0.0004        	smoothSolver	2.315510e-02	4.901650e-06	1	1.879950e-02	5.961640e-06	1	3.340020e-03	1.031730e-06	1	false	smoothSolver	7.756840e-02	5.869820e-08	1	true	smoothSolver	5.359800e-02	7.536580e-08	1	true	DICPCG	7.976980e-02	3.682850e-03	8	true
0.0005        	smoothSolver	2.048700e-02	4.304900e-06	1	1.644290e-02	5.109560e-06	1	2.824570e-03	8.375820e-07	1	false	smoothSolver	5.941040e-02	5.588170e-08	1	true	smoothSolver	4.074850e-02	7.065270e-08	1	true	DICPCG	5.446490e-02	2.689900e-03	13	true
0.0006        	smoothSolver	1.852730e-02	3.885790e-06	1	1.492770e-02	4.581750e-06	1	2.497480e-03	7.119360e-07	1	false	smoothSolver	4.811030e-02	5.372160e-08	1	true	smoothSolver	3.287100e-02	6.738880e-08	1	true	DICPCG	3.744180e-02	1.837860e-03	14	true
0.0007        	smoothSolver	1.710350e-02	3.578290e-06	1	1.390260e-02	4.234950e-06	1	2.286170e-03	6.344140e-07	1	false	smoothSolver	4.042670e-02	5.193950e-08	1	true	smoothSolver	2.754780e-02	6.487150e-08	1	true	DICPCG	2.681760e-02	1.321300e-03	15	true
0.0008        	smoothSolver	1.606030e-02	3.346910e-06	1	1.312540e-02	3.987020e-06	1	2.136120e-03	5.812140e-07	1	false	smoothSolver	3.486360e-02	5.041350e-08	1	true	smoothSolver	2.371010e-02	6.279080e-08	1	true	DICPCG	2.004930e-02	9.836850e-04	18	true
0.0009        	smoothSolver	1.523090e-02	3.163300e-06	1	1.248060e-02	3.788770e-06	1	2.023350e-03	5.436970e-07	1	false	smoothSolver	3.065030e-02	4.906030e-08	1	true	smoothSolver	2.081260e-02	6.098980e-08	1	true	DICPCG	1.561560e-02	7.587420e-04	21	true
0.001         	smoothSolver	1.456880e-02	3.009750e-06	1	1.190420e-02	3.615480e-06	1	1.933290e-03	5.156310e-07	1	false	smoothSolver	2.734900e-02	4.785680e-08	1	true	smoothSolver	1.854750e-02	5.938100e-08	1	true	DICPCG	1.263350e-02	5.889740e-04	22	true
0.0011        	smoothSolver	1.400180e-02	2.878410e-06	1	1.138830e-02	3.459810e-06	1	1.856150e-03	4.931830e-07	1	false	smoothSolver	2.469280e-02	4.676890e-08	1	true	smoothSolver	1.672840e-02	5.791160e-08	1	true	DICPCG	1.098810e-02	5.274220e-04	22	true
0.0012        	smoothSolver	1.347930e-02	2.763970e-06	1	1.092080e-02	3.319330e-06	1	1.789120e-03	4.751780e-07	1	false	smoothSolver	2.250980e-02	4.574350e-08	1	true	smoothSolver	1.523540e-02	5.654840e-08	1	true	DICPCG	9.768620e-03	4.825330e-04	22	true
0.0013        	smoothSolver	1.299260e-02	2.660940e-06	1	1.049380e-02	3.191380e-06	1	1.729040e-03	4.597750e-07	1	false	smoothSolver	2.068410e-02	4.477120e-08	1	true	smoothSolver	1.398740e-02	5.526670e-08	1	true	DICPCG	8.801250e-03	3.387970e-04	52	true
0.0014        	smoothSolver	1.253770e-02	2.568130e-06	1	1.010380e-02	3.074390e-06	1	1.676120e-03	4.466560e-07	1	false	smoothSolver	1.913480e-02	4.384480e-08	1	true	smoothSolver	1.292820e-02	5.404960e-08	1	true	DICPCG	7.991080e-03	3.096050e-04	52	true
0.0015        	smoothSolver	1.211070e-02	2.485270e-06	1	9.742700e-03	2.966640e-06	1	1.627510e-03	4.351030e-07	1	false	smoothSolver	1.780360e-02	4.296330e-08	1	true	smoothSolver	1.201710e-02	5.288390e-08	1	true	DICPCG	7.292700e-03	2.907390e-04	52	true
0.0016        	smoothSolver	1.170800e-02	2.408620e-06	1	9.404700e-03	2.866260e-06	1	1.583210e-03	4.249840e-07	1	false	smoothSolver	1.664770e-02	4.211800e-08	1	true	smoothSolver	1.122570e-02	5.176600e-08	1	true	DICPCG	6.706370e-03	2.610340e-04	52	true
0.0017        	smoothSolver	1.132770e-02	2.337060e-06	1	9.088250e-03	2.772410e-06	1	1.540300e-03	4.153870e-07	1	false	smoothSolver	1.563480e-02	4.130660e-08	1	true	smoothSolver	1.053210e-02	5.069190e-08	1	true	DICPCG	6.202760e-03	2.643320e-04	52	true
0.0018        	smoothSolver	1.096740e-02	2.269770e-06	1	8.789660e-03	2.684380e-06	1	1.500570e-03	4.067840e-07	1	false	smoothSolver	1.473980e-02	4.052650e-08	1	true	smoothSolver	9.919080e-03	4.965720e-08	1	true	DICPCG	5.757060e-03	2.524290e-04	52	true
0.0019        	smoothSolver	1.062340e-02	2.205790e-06	1	8.509080e-03	2.601600e-06	1	1.462850e-03	3.987590e-07	1	false	smoothSolver	1.394350e-02	3.977920e-08	1	true	smoothSolver	9.373590e-03	4.865890e-08	1	true	DICPCG	5.360970e-03	2.389820e-04	52	true
0.002         	smoothSolver	1.029480e-02	2.144850e-06	1	8.245290e-03	2.523700e-06	1	1.427110e-03	3.912010e-07	1	false	smoothSolver	1.323050e-02	3.907440e-08	1	true	smoothSolver	8.885010e-03	4.769420e-08	1	true	DICPCG	5.007880e-03	2.290640e-04	52	true
0.0021        	smoothSolver	9.982460e-03	2.087080e-06	1	7.996440e-03	2.450300e-06	1	1.393390e-03	3.840810e-07	1	false	smoothSolver	1.258840e-02	3.839190e-08	1	true	smoothSolver	8.444910e-03	4.676110e-08	1	true	DICPCG	4.691310e-03	2.281910e-04	52	true
0.0022        	smoothSolver	9.685360e-03	2.032230e-06	1	7.761170e-03	2.380940e-06	1	1.362610e-03	3.775190e-07	1	false	smoothSolver	1.200720e-02	3.773250e-08	1	true	smoothSolver	8.046430e-03	4.585740e-08	1	true	DICPCG	4.406770e-03	2.164020e-04	52	true
0.0023        	smoothSolver	9.402650e-03	1.980110e-06	1	7.538380e-03	2.315250e-06	1	1.333190e-03	3.712420e-07	1	false	smoothSolver	1.147870e-02	3.709490e-08	1	true	smoothSolver	7.683930e-03	4.498150e-08	1	true	DICPCG	4.153250e-03	2.048400e-04	52	true
0.0024        	smoothSolver	9.133560e-03	1.930600e-06	1	7.326920e-03	2.252920e-06	1	1.303760e-03	3.648830e-07	1	false	smoothSolver	1.099600e-02	3.647860e-08	1	true	smoothSolver	7.352760e-03	4.413200e-08	1	true	DICPCG	3.942130e-03	1.944190e-04	53	true
0.0025        	smoothSolver	8.876920e-03	1.883390e-06	1	7.125860e-03	2.193590e-06	1	1.275780e-03	3.588410e-07	1	false	smoothSolver	1.055360e-02	3.588300e-08	1	true	smoothSolver	7.049030e-03	4.330760e-08	1	true	DICPCG	3.814280e-03	1.630600e-04	63	true
0.0026        	smoothSolver	8.632060e-03	1.838320e-06	1	6.933800e-03	2.136510e-06	1	1.248650e-03	3.529760e-07	1	false	smoothSolver	1.014660e-02	3.530730e-08	1	true	smoothSolver	6.769470e-03	4.250710e-08	1	true	DICPCG	3.541900e-03	1.585300e-04	63	true
0.0027        	smoothSolver	8.398380e-03	1.795280e-06	1	6.750490e-03	2.083030e-06	1	1.223180e-03	3.476050e-07	1	false	smoothSolver	9.770820e-03	3.475040e-08	1	true	smoothSolver	6.511310e-03	4.172940e-08	1	true	DICPCG	3.689080e-03	1.646080e-04	63	true
0.0028        	smoothSolver	8.175210e-03	1.754150e-06	1	6.575540e-03	2.033270e-06	1	1.199890e-03	3.427280e-07	1	false	smoothSolver	9.420650e-03	3.420460e-08	1	true	smoothSolver	6.272190e-03	4.097360e-08	1	true	DICPCG	3.293220e-03	1.571810e-04	63	true
0.0029        	smoothSolver	7.961770e-03	1.714760e-06	1	6.407400e-03	1.984440e-06	1	1.178140e-03	3.378480e-07	1	false	smoothSolver	9.093020e-03	3.366970e-08	1	true	smoothSolver	6.050090e-03	4.023870e-08	1	true	DICPCG	3.303020e-03	1.570650e-04	63	true
0.003         	smoothSolver	7.757480e-03	1.677140e-06	1	6.246590e-03	1.936420e-06	1	1.156510e-03	3.327210e-07	1	false	smoothSolver	8.784720e-03	3.313960e-08	1	true	smoothSolver	5.843240e-03	3.952390e-08	1	true	DICPCG	3.081610e-03	1.104260e-04	64	true
0.0031        	smoothSolver	7.561780e-03	1.641230e-06	1	6.093040e-03	1.890510e-06	1	1.136370e-03	3.278070e-07	1	false	smoothSolver	8.496110e-03	3.262280e-08	1	true	smoothSolver	5.650150e-03	3.882850e-08	1	true	DICPCG	2.824680e-03	1.105970e-04	64	true
0.0032        	smoothSolver	7.374830e-03	1.606790e-06	1	5.943220e-03	1.846430e-06	1	1.117460e-03	3.229750e-07	1	false	smoothSolver	8.226010e-03	3.212160e-08	1	true	smoothSolver	5.469470e-03	3.815160e-08	1	true	DICPCG	2.795240e-03	1.190930e-04	64	true
0.0033        	smoothSolver	7.197910e-03	1.573680e-06	1	5.792640e-03	1.802790e-06	1	1.098050e-03	3.179970e-07	1	false	smoothSolver	7.972730e-03	3.163560e-08	1	true	smoothSolver	5.300070e-03	3.749270e-08	1	true	DICPCG	2.723010e-03	1.197520e-04	64	true
0.0034        	smoothSolver	7.027760e-03	1.541670e-06	1	5.646880e-03	1.761190e-06	1	1.079570e-03	3.132070e-07	1	false	smoothSolver	7.734780e-03	3.116430e-08	1	true	smoothSolver	5.140910e-03	3.685100e-08	1	true	DICPCG	2.855390e-03	1.083880e-04	64	true
0.0035        	smoothSolver	6.864170e-03	1.509850e-06	1	5.507590e-03	1.721020e-06	1	1.061120e-03	3.083270e-07	1	false	smoothSolver	7.510790e-03	3.070690e-08	1	true	smoothSolver	4.991100e-03	3.622590e-08	1	true	DICPCG	2.486390e-03	1.075590e-04	64	true
0.0036        	smoothSolver	6.708820e-03	1.477930e-06	1	5.379880e-03	1.683140e-06	1	1.044220e-03	3.039000e-07	1	false	smoothSolver	7.299600e-03	3.026280e-08	1	true	smoothSolver	4.849850e-03	3.561690e-08	1	true	DICPCG	2.254970e-03	1.057270e-04	64	true
0.0037        	smoothSolver	6.559220e-03	1.446820e-06	1	5.263760e-03	1.648800e-06	1	1.027820e-03	2.996520e-07	1	false	smoothSolver	7.100130e-03	2.983170e-08	1	true	smoothSolver	4.716440e-03	3.502330e-08	1	true	DICPCG	2.126010e-03	1.001550e-04	64	true
0.0038        	smoothSolver	6.415710e-03	1.417160e-06	1	5.152410e-03	1.615670e-06	1	1.012560e-03	2.957400e-07	1	false	smoothSolver	6.911450e-03	2.941330e-08	1	true	smoothSolver	4.590100e-03	3.444370e-08	1	true	DICPCG	2.059530e-03	9.860650e-05	64	true
0.0039        	smoothSolver	6.277780e-03	1.389040e-06	1	5.044300e-03	1.583590e-06	1	9.980860e-04	2.920630e-07	1	false	smoothSolver	6.732710e-03	2.900700e-08	1	true	smoothSolver	4.470280e-03	3.387740e-08	1	true	DICPCG	2.024430e-03	9.980820e-05	64	true
0.004         	smoothSolver	6.145180e-03	1.362010e-06	1	4.940690e-03	1.553080e-06	1	9.837300e-04	2.884730e-07	1	false	smoothSolver	6.563160e-03	2.861240e-08	1	true	smoothSolver	4.356410e-03	3.332360e-08	1	true	DICPCG	2.047390e-03	1.001910e-04	64	true
0.0041        	smoothSolver	6.017530e-03	1.335980e-06	1	4.841150e-03	1.523100e-06	1	9.695460e-04	2.849440e-07	1	false	smoothSolver	6.402110e-03	2.822950e-08	1	true	smoothSolver	4.248190e-03	3.278300e-08	1	true	DICPCG	1.997040e-03	9.224070e-05	64	true
0.0042        	smoothSolver	5.894230e-03	1.310840e-06	1	4.739380e-03	1.493090e-06	1	9.547200e-04	2.812500e-07	1	false	smoothSolver	6.248930e-03	2.785830e-08	1	true	smoothSolver	4.145210e-03	3.225520e-08	1	true	DICPCG	1.931150e-03	9.079720e-05	64	true
0.0043        	smoothSolver	5.774830e-03	1.286470e-06	1	4.643190e-03	1.464590e-06	1	9.408180e-04	2.778280e-07	1	false	smoothSolver	6.103090e-03	2.749840e-08	1	true	smoothSolver	4.047130e-03	3.173990e-08	1	true	DICPCG	1.884840e-03	9.129520e-05	64	true
0.0044        	smoothSolver	5.657440e-03	1.262450e-06	1	4.551990e-03	1.437400e-06	1	9.274750e-04	2.745790e-07	1	false	smoothSolver	5.964050e-03	2.714850e-08	1	true	smoothSolver	3.953590e-03	3.123670e-08	1	true	DICPCG	1.752800e-03	8.750080e-05	64	true
0.0045        	smoothSolver	5.539970e-03	1.238310e-06	1	4.464850e-03	1.411170e-06	1	9.142780e-04	2.713470e-07	1	false	smoothSolver	5.831350e-03	2.680790e-08	1	true	smoothSolver	3.864310e-03	3.074540e-08	1	true	DICPCG	1.688250e-03	6.396130e-05	65	true
0.0046        	smoothSolver	5.424390e-03	1.214490e-06	1	4.380200e-03	1.386270e-06	1	9.018560e-04	2.683220e-07	1	false	smoothSolver	5.704550e-03	2.647630e-08	1	true	smoothSolver	3.778980e-03	3.026530e-08	1	true	DICPCG	1.587320e-03	5.979450e-05	65	true
0.0047        	smoothSolver	5.312680e-03	1.191410e-06	1	4.299580e-03	1.362340e-06	1	8.898210e-04	2.654020e-07	1	false	smoothSolver	5.583280e-03	2.615330e-08	1	true	smoothSolver	3.697360e-03	2.979640e-08	1	true	DICPCG	1.588830e-03	6.065610e-05	65	true
0.0048        	smoothSolver	5.204750e-03	1.169040e-06	1	4.220610e-03	1.338840e-06	1	8.783080e-04	2.626100e-07	1	false	smoothSolver	5.467170e-03	2.583860e-08	1	true	smoothSolver	3.619210e-03	2.933800e-08	1	true	DICPCG	1.583310e-03	7.841540e-05	64	true
0.0049        	smoothSolver	5.100490e-03	1.147410e-06	1	4.146710e-03	1.316570e-06	1	8.663840e-04	2.596760e-07	1	false	smoothSolver	5.355950e-03	2.553210e-08	1	true	smoothSolver	3.544300e-03	2.888990e-08	1	true	DICPCG	1.424730e-03	5.300400e-05	65	true
0.005         	smoothSolver	4.999770e-03	1.126470e-06	1	4.073310e-03	1.294540e-06	1	8.549820e-04	2.569230e-07	1	false	smoothSolver	5.249290e-03	2.523340e-08	1	true	smoothSolver	3.472420e-03	2.845160e-08	1	true	DICPCG	1.392860e-03	5.275630e-05	65	true
0.0051        	smoothSolver	4.902450e-03	1.106170e-06	1	4.003550e-03	1.273440e-06	1	8.438100e-04	2.542170e-07	1	false	smoothSolver	5.146950e-03	2.494230e-08	1	true	smoothSolver	3.403390e-03	2.802290e-08	1	true	DICPCG	1.362320e-03	5.171240e-05	65	true
0.0052        	smoothSolver	4.808410e-03	1.086530e-06	1	3.933140e-03	1.252320e-06	1	8.331680e-04	2.516690e-07	1	false	smoothSolver	5.048670e-03	2.465860e-08	1	true	smoothSolver	3.337060e-03	2.760350e-08	1	true	DICPCG	1.316320e-03	4.995340e-05	65	true
0.0053        	smoothSolver	4.717540e-03	1.067520e-06	1	3.865780e-03	1.231960e-06	1	8.227000e-04	2.491640e-07	1	false	smoothSolver	4.954210e-03	2.438200e-08	1	true	smoothSolver	3.273290e-03	2.719340e-08	1	true	DICPCG	1.315270e-03	4.846910e-05	65	true
0.0054        	smoothSolver	4.629670e-03	1.049110e-06	1	3.800050e-03	1.212230e-06	1	8.123980e-04	2.466930e-07	1	false	smoothSolver	4.863370e-03	2.411230e-08	1	true	smoothSolver	3.211910e-03	2.679200e-08	1	true	DICPCG	1.330010e-03	5.084940e-05	65	true
0.0055        	smoothSolver	4.544660e-03	1.031270e-06	1	3.734310e-03	1.192660e-06	1	8.024950e-04	2.443410e-07	1	false	smoothSolver	4.775930e-03	2.384910e-08	1	true	smoothSolver	3.152810e-03	2.639930e-08	1	true	DICPCG	1.369740e-03	6.838290e-05	64	true
0.0056        	smoothSolver	4.462370e-03	1.014040e-06	1	3.674040e-03	1.174640e-06	1	7.921980e-04	2.418420e-07	1	false	smoothSolver	4.691730e-03	2.359240e-08	1	true	smoothSolver	3.095860e-03	2.601490e-08	1	true	DICPCG	1.235470e-03	4.606330e-05	65	true
0.0057        	smoothSolver	4.382710e-03	9.974690e-07	1	3.613620e-03	1.156760e-06	1	7.822440e-04	2.394330e-07	1	false	smoothSolver	4.610580e-03	2.334180e-08	1	true	smoothSolver	3.040940e-03	2.563860e-08	1	true	DICPCG	1.193730e-03	4.783020e-05	65	true
0.0058        	smoothSolver	4.305540e-03	9.816100e-07	1	3.557300e-03	1.139940e-06	1	7.726840e-04	2.370920e-07	1	false	smoothSolver	4.532320e-03	2.309730e-08	1	true	smoothSolver	2.987950e-03	2.527020e-08	1	true	DICPCG	1.138810e-03	4.637370e-05	65	true
0.0059        	smoothSolver	4.230780e-03	9.662660e-07	1	3.502550e-03	1.123470e-06	1	7.635900e-04	2.348760e-07	1	false	smoothSolver	4.456810e-03	2.285850e-08	1	true	smoothSolver	2.936800e-03	2.490950e-08	1	true	DICPCG	1.085840e-03	4.509490e-05	65	true
0.006         	smoothSolver	4.158290e-03	9.513950e-07	1	3.449560e-03	1.107290e-06	1	7.548610e-04	2.327560e-07	1	false	smoothSolver	4.383910e-03	2.262540e-08	1	true	smoothSolver	2.887380e-03	2.455630e-08	1	true	DICPCG	1.086030e-03	4.360070e-05	65	true
0.0061        	smoothSolver	4.087990e-03	9.369620e-07	1	3.398710e-03	1.091770e-06	1	7.464330e-04	2.306970e-07	1	false	smoothSolver	4.313490e-03	2.239770e-08	1	true	smoothSolver	2.839610e-03	2.421020e-08	1	true	DICPCG	1.051380e-03	4.206250e-05	65	true
0.0062        	smoothSolver	4.019770e-03	9.229450e-07	1	3.350710e-03	1.077000e-06	1	7.381250e-04	2.286430e-07	1	false	smoothSolver	4.245420e-03	2.217540e-08	1	true	smoothSolver	2.793410e-03	2.387120e-08	1	true	DICPCG	1.052520e-03	4.063630e-05	65	true
0.0063        	smoothSolver	3.953580e-03	9.093080e-07	1	3.304410e-03	1.062680e-06	1	7.300920e-04	2.266470e-07	1	false	smoothSolver	4.179600e-03	2.195830e-08	1	true	smoothSolver	2.748710e-03	2.353910e-08	1	true	DICPCG	1.012190e-03	3.994800e-05	65	true
0.0064        	smoothSolver	3.889330e-03	8.960480e-07	1	3.260460e-03	1.049130e-06	1	7.221900e-04	2.246540e-07	1	false	smoothSolver	4.115920e-03	2.174620e-08	1	true	smoothSolver	2.705430e-03	2.321360e-08	1	true	DICPCG	9.662300e-04	3.954940e-05	65	true
0.0065        	smoothSolver	3.826910e-03	8.831200e-07	1	3.216550e-03	1.035520e-06	1	7.148050e-04	2.227670e-07	1	false	smoothSolver	4.054270e-03	2.153900e-08	1	true	smoothSolver	2.663510e-03	2.289450e-08	1	true	DICPCG	9.431190e-04	4.018650e-05	65	true
0.0066        	smoothSolver	3.766250e-03	8.705290e-07	1	3.173810e-03	1.022250e-06	1	7.076150e-04	2.209120e-07	1	false	smoothSolver	3.994570e-03	2.133670e-08	1	true	smoothSolver	2.622890e-03	2.258180e-08	1	true	DICPCG	9.183260e-04	3.898320e-05	65	true
0.0067        	smoothSolver	3.707270e-03	8.582850e-07	1	3.132720e-03	1.009430e-06	1	7.006640e-04	2.190930e-07	1	false	smoothSolver	3.936710e-03	2.113910e-08	1	true	smoothSolver	2.583500e-03	2.227520e-08	1	true	DICPCG	9.505200e-04	3.801350e-05	65	true
0.0068        	smoothSolver	3.649920e-03	8.463620e-07	1	3.093780e-03	9.972870e-07	1	6.936540e-04	2.172380e-07	1	false	smoothSolver	3.880560e-03	2.094550e-08	1	true	smoothSolver	2.545280e-03	2.197440e-08	1	true	DICPCG	9.387230e-04	4.086530e-05	65	true
0.0069        	smoothSolver	3.594180e-03	8.347510e-07	1	3.054840e-03	9.853180e-07	1	6.867650e-04	2.154190e-07	1	false	smoothSolver	3.825940e-03	2.075530e-08	1	true	smoothSolver	2.508160e-03	2.167920e-08	1	true	DICPCG	9.147060e-04	3.670130e-05	65	true
0.007         	smoothSolver	3.540200e-03	8.234390e-07	1	3.018940e-03	9.741530e-07	1	6.798990e-04	2.135910e-07	1	false	smoothSolver	3.772660e-03	2.056750e-08	1	true	smoothSolver	2.472070e-03	2.138920e-08	1	true	DICPCG	8.589200e-04	3.654890e-05	65	true
0.0071        	smoothSolver	3.488020e-03	8.124270e-07	1	2.983360e-03	9.631480e-07	1	6.733080e-04	2.118330e-07	1	false	smoothSolver	3.720530e-03	2.038140e-08	1	true	smoothSolver	2.436980e-03	2.110430e-08	1	true	DICPCG	8.654780e-04	3.634070e-05	65	true
0.0072        	smoothSolver	3.437260e-03	8.016740e-07	1	2.948380e-03	9.523580e-07	1	6.668080e-04	2.100980e-07	1	false	smoothSolver	3.669540e-03	2.019710e-08	1	true	smoothSolver	2.402850e-03	2.082460e-08	1	true	DICPCG	8.302280e-04	3.590610e-05	65	true
0.0073        	smoothSolver	3.387880e-03	7.911710e-07	1	2.913980e-03	9.417890e-07	1	6.606380e-04	2.084240e-07	1	false	smoothSolver	3.619720e-03	2.001500e-08	1	true	smoothSolver	2.369660e-03	2.055000e-08	1	true	DICPCG	8.061510e-04	3.424920e-05	65	true
0.0074        	smoothSolver	3.339740e-03	7.809160e-07	1	2.880920e-03	9.315950e-07	1	6.546330e-04	2.067760e-07	1	false	smoothSolver	3.571270e-03	1.983640e-08	1	true	smoothSolver	2.337380e-03	2.028050e-08	1	true	DICPCG	7.719310e-04	3.420910e-05	65	true
0.0075        	smoothSolver	3.292840e-03	7.708960e-07	1	2.849080e-03	9.216680e-07	1	6.488070e-04	2.051740e-07	1	false	smoothSolver	3.524130e-03	1.966110e-08	1	true	smoothSolver	2.305970e-03	2.001580e-08	1	true	DICPCG	7.631780e-04	3.387640e-05	65	true
0.0076        	smoothSolver	3.247100e-03	7.611070e-07	1	2.818710e-03	9.121240e-07	1	6.429730e-04	2.035680e-07	1	false	smoothSolver	3.478240e-03	1.948910e-08	1	true	smoothSolver	2.275390e-03	1.975600e-08	1	true	DICPCG	7.548550e-04	3.397260e-05	65	true
0.0077        	smoothSolver	3.202500e-03	7.515420e-07	1	2.789820e-03	9.030890e-07	1	6.372010e-04	2.019710e-07	1	false	smoothSolver	3.433540e-03	1.932010e-08	1	true	smoothSolver	2.245620e-03	1.950090e-08	1	true	DICPCG	7.278170e-04	3.293060e-05	65	true
0.0078        	smoothSolver	3.158960e-03	7.421860e-07	1	2.761180e-03	8.940160e-07	1	6.316230e-04	2.004290e-07	1	false	smoothSolver	3.389960e-03	1.915400e-08	1	true	smoothSolver	2.216630e-03	1.925030e-08	1	true	DICPCG	7.213170e-04	3.227340e-05	65	true
0.0079        	smoothSolver	3.116440e-03	7.330530e-07	1	2.733490e-03	8.852280e-07	1	6.260660e-04	1.988890e-07	1	false	smoothSolver	3.347440e-03	1.899050e-08	1	true	smoothSolver	2.188370e-03	1.900410e-08	1	true	DICPCG	7.042930e-04	3.172320e-05	65	true
0.008         	smoothSolver	3.074920e-03	7.241320e-07	1	2.706190e-03	8.765810e-07	1	6.206060e-04	1.973790e-07	1	false	smoothSolver	3.305950e-03	1.882970e-08	1	true	smoothSolver	2.160820e-03	1.876230e-08	1	true	DICPCG	6.970580e-04	3.149760e-05	65	true
0.0081        	smoothSolver	3.034380e-03	7.154090e-07	1	2.679720e-03	8.681970e-07	1	6.151920e-04	1.958770e-07	1	false	smoothSolver	3.265490e-03	1.867160e-08	1	true	smoothSolver	2.133960e-03	1.852470e-08	1	true	DICPCG	6.824990e-04	3.111800e-05	65	true
0.0082        	smoothSolver	2.994770e-03	7.068740e-07	1	2.653800e-03	8.599940e-07	1	6.098980e-04	1.944120e-07	1	false	smoothSolver	3.226040e-03	1.851640e-08	1	true	smoothSolver	2.107770e-03	1.829120e-08	1	true	DICPCG	6.822070e-04	3.039370e-05	65	true
0.0083        	smoothSolver	2.956050e-03	6.985240e-07	1	2.628080e-03	8.518030e-07	1	6.047190e-04	1.929870e-07	1	false	smoothSolver	3.187580e-03	1.836400e-08	1	true	smoothSolver	2.082210e-03	1.806180e-08	1	true	DICPCG	6.856290e-04	3.022330e-05	65	true
0.0084        	smoothSolver	2.918210e-03	6.903570e-07	1	2.602960e-03	8.437870e-07	1	5.995180e-04	1.915460e-07	1	false	smoothSolver	3.150060e-03	1.821420e-08	1	true	smoothSolver	2.057270e-03	1.783640e-08	1	true	DICPCG	6.833950e-04	3.040720e-05	65	true
0.0085        	smoothSolver	2.881210e-03	6.823710e-07	1	2.577540e-03	8.355960e-07	1	5.942930e-04	1.901080e-07	1	false	smoothSolver	3.113440e-03	1.806710e-08	1	true	smoothSolver	2.032930e-03	1.761480e-08	1	true	DICPCG	7.602540e-04	2.852410e-05	66	true
0.0086        	smoothSolver	2.844980e-03	6.745190e-07	1	2.559320e-03	8.295850e-07	1	5.896970e-04	1.888340e-07	1	false	smoothSolver	3.077710e-03	1.792250e-08	1	true	smoothSolver	2.009160e-03	1.739700e-08	1	true	DICPCG	7.259310e-04	2.754550e-05	66	true
0.0087        	smoothSolver	2.809570e-03	6.668340e-07	1	2.541350e-03	8.235720e-07	1	5.852890e-04	1.875790e-07	1	false	smoothSolver	3.042830e-03	1.778040e-08	1	true	smoothSolver	1.985940e-03	1.718280e-08	1	true	DICPCG	6.802580e-04	3.019600e-05	65	true
0.0088        	smoothSolver	2.775190e-03	6.593220e-07	1	2.519010e-03	8.161520e-07	1	5.805630e-04	1.862600e-07	1	false	smoothSolver	3.008760e-03	1.764080e-08	1	true	smoothSolver	1.963260e-03	1.697230e-08	1	true	DICPCG	7.757360e-04	3.404910e-05	65	true
0.0089        	smoothSolver	2.741650e-03	6.519480e-07	1	2.497970e-03	8.096080e-07	1	5.760780e-04	1.849800e-07	1	false	smoothSolver	2.975480e-03	1.750340e-08	1	true	smoothSolver	1.941100e-03	1.676530e-08	1	true	DICPCG	7.833680e-04	2.961780e-05	66	true
0.009         	smoothSolver	2.709690e-03	6.447190e-07	1	2.479900e-03	8.039550e-07	1	5.723440e-04	1.839590e-07	1	false	smoothSolver	2.942960e-03	1.736840e-08	1	true	smoothSolver	1.919440e-03	1.656170e-08	1	true	DICPCG	6.530240e-04	2.948720e-05	65	true
0.0091        	smoothSolver	2.678770e-03	6.376280e-07	1	2.458730e-03	7.972850e-07	1	5.681210e-04	1.827980e-07	1	false	smoothSolver	2.911180e-03	1.723560e-08	1	true	smoothSolver	1.898270e-03	1.636150e-08	1	true	DICPCG	7.171340e-04	3.009440e-05	65	true
0.0092        	smoothSolver	2.648620e-03	6.306770e-07	1	2.437000e-03	7.905890e-07	1	5.640300e-04	1.816860e-07	1	false	smoothSolver	2.880120e-03	1.710510e-08	1	true	smoothSolver	1.877560e-03	1.616460e-08	1	true	DICPCG	7.219980e-04	3.127990e-05	65	true
0.0093        	smoothSolver	2.619150e-03	6.238540e-07	1	2.416610e-03	7.840540e-07	1	5.592440e-04	1.803080e-07	1	false	smoothSolver	2.849750e-03	1.697670e-08	1	true	smoothSolver	1.857310e-03	1.597090e-08	1	true	DICPCG	7.268260e-04	3.184600e-05	65	true
0.0094        	smoothSolver	2.590350e-03	6.171460e-07	1	2.396360e-03	7.775260e-07	1	5.547780e-04	1.790240e-07	1	false	smoothSolver	2.820050e-03	1.685040e-08	1	true	smoothSolver	1.837490e-03	1.578040e-08	1	true	DICPCG	6.208950e-04	2.784230e-05	65	true
0.0095        	smoothSolver	2.562200e-03	6.105740e-07	1	2.376900e-03	7.714470e-07	1	5.505730e-04	1.778530e-07	1	false	smoothSolver	2.791000e-03	1.672620e-08	1	true	smoothSolver	1.818100e-03	1.559290e-08	1	true	DICPCG	5.986240e-04	2.753630e-05	65	true
0.0096        	smoothSolver	2.534640e-03	6.041210e-07	1	2.357830e-03	7.654660e-07	1	5.464780e-04	1.767090e-07	1	false	smoothSolver	2.762580e-03	1.660400e-08	1	true	smoothSolver	1.799120e-03	1.540840e-08	1	true	DICPCG	6.150020e-04	2.771340e-05	65	true
0.0097        	smoothSolver	2.507610e-03	5.977800e-07	1	2.338590e-03	7.593800e-07	1	5.425520e-04	1.756060e-07	1	false	smoothSolver	2.734770e-03	1.648380e-08	1	true	smoothSolver	1.780540e-03	1.522690e-08	1	true	DICPCG	5.987770e-04	2.860930e-05	65	true
0.0098        	smoothSolver	2.481110e-03	5.915500e-07	1	2.319830e-03	7.534430e-07	1	5.387350e-04	1.745100e-07	1	false	smoothSolver	2.707550e-03	1.636560e-08	1	true	smoothSolver	1.762340e-03	1.504820e-08	1	true	DICPCG	5.629740e-04	2.634300e-05	65	true
0.0099        	smoothSolver	2.455090e-03	5.854360e-07	1	2.301830e-03	7.477510e-07	1	5.348200e-04	1.733960e-07	1	false	smoothSolver	2.680910e-03	1.624930e-08	1	true	smoothSolver	1.744520e-03	1.487240e-08	1	true	DICPCG	5.621850e-04	2.735760e-05	65	true
0.01          	smoothSolver	2.429570e-03	5.794370e-07	1	2.284300e-03	7.422190e-07	1	5.309040e-04	1.722690e-07	1	false	smoothSolver	2.654820e-03	1.613470e-08	1	true	smoothSolver	1.727060e-03	1.469930e-08	1	true	DICPCG	5.575140e-04	2.754730e-05	65	true
0.0101        	smoothSolver	2.404510e-03	5.735550e-07	1	2.266760e-03	7.366580e-07	1	5.273300e-04	1.712290e-07	1	false	smoothSolver	2.629270e-03	1.602190e-08	1	true	smoothSolver	1.709950e-03	1.452880e-08	1	true	DICPCG	5.384760e-04	2.580520e-05	65	true
0.0102        	smoothSolver	2.379910e-03	5.677870e-07	1	2.249200e-03	7.311050e-07	1	5.236420e-04	1.701730e-07	1	false	smoothSolver	2.604240e-03	1.591070e-08	1	true	smoothSolver	1.693170e-03	1.436090e-08	1	true	DICPCG	5.667340e-04	2.748650e-05	65	true
0.0103        	smoothSolver	2.355740e-03	5.621190e-07	1	2.232090e-03	7.256910e-07	1	5.200100e-04	1.691240e-07	1	false	smoothSolver	2.579720e-03	1.580130e-08	1	true	smoothSolver	1.676700e-03	1.419540e-08	1	true	DICPCG	5.390250e-04	2.605970e-05	65	true
0.0104        	smoothSolver	2.332000e-03	5.565480e-07	1	2.215230e-03	7.203280e-07	1	5.164260e-04	1.680950e-07	1	false	smoothSolver	2.555700e-03	1.569340e-08	1	true	smoothSolver	1.660540e-03	1.403230e-08	1	true	DICPCG	5.027770e-04	1.799170e-05	66	true
0.0105        	smoothSolver	2.308670e-03	5.510790e-07	1	2.198920e-03	7.151200e-07	1	5.128060e-04	1.670630e-07	1	false	smoothSolver	2.532150e-03	1.558720e-08	1	true	smoothSolver	1.644700e-03	1.387180e-08	1	true	DICPCG	4.998850e-04	1.790300e-05	66	true
0.0106        	smoothSolver	2.285750e-03	5.457140e-07	1	2.182700e-03	7.099000e-07	1	5.091350e-04	1.660200e-07	1	false	smoothSolver	2.509080e-03	1.548250e-08	1	true	smoothSolver	1.629160e-03	1.371360e-08	1	true	DICPCG	5.355030e-04	2.002850e-05	66	true
0.0107        	smoothSolver	2.263200e-03	5.404940e-07	1	2.168480e-03	7.053590e-07	1	5.058390e-04	1.650630e-07	1	false	smoothSolver	2.486450e-03	1.537930e-08	1	true	smoothSolver	1.613910e-03	1.355770e-08	1	true	DICPCG	5.373580e-04	1.948750e-05	66	true
0.0108        	smoothSolver	2.241030e-03	5.353840e-07	1	2.153060e-03	7.004340e-07	1	5.028070e-04	1.641680e-07	1	false	smoothSolver	2.464260e-03	1.527760e-08	1	true	smoothSolver	1.598930e-03	1.340410e-08	1	true	DICPCG	4.832160e-04	1.817170e-05	66	true
0.0109        	smoothSolver	2.219240e-03	5.303710e-07	1	2.137320e-03	6.954590e-07	1	4.995650e-04	1.632180e-07	1	false	smoothSolver	2.442510e-03	1.517730e-08	1	true	smoothSolver	1.584220e-03	1.325260e-08	1	true	DICPCG	4.692510e-04	1.772380e-05	66	true
0.011         	smoothSolver	2.197810e-03	5.254480e-07	1	2.122280e-03	6.906940e-07	1	4.963420e-04	1.622780e-07	1	false	smoothSolver	2.421170e-03	1.507850e-08	1	true	smoothSolver	1.569770e-03	1.310330e-08	1	true	DICPCG	4.486300e-04	1.732410e-05	66	true
0.0111        	smoothSolver	2.176740e-03	5.206090e-07	1	2.107440e-03	6.859970e-07	1	4.930410e-04	1.613200e-07	1	false	smoothSolver	2.400230e-03	1.498100e-08	1	true	smoothSolver	1.555590e-03	1.295620e-08	1	true	DICPCG	4.528100e-04	1.732450e-05	66	true
0.0112        	smoothSolver	2.156030e-03	5.158530e-07	1	2.092910e-03	6.814140e-07	1	4.897430e-04	1.603540e-07	1	false	smoothSolver	2.379690e-03	1.488490e-08	1	true	smoothSolver	1.541670e-03	1.281130e-08	1	true	DICPCG	4.578690e-04	1.773820e-05	66	true
0.0113        	smoothSolver	2.135730e-03	5.111750e-07	1	2.078800e-03	6.769250e-07	1	4.866540e-04	1.594440e-07	1	false	smoothSolver	2.359540e-03	1.479020e-08	1	true	smoothSolver	1.527990e-03	1.266840e-08	1	true	DICPCG	4.372770e-04	1.724740e-05	66	true
0.0114        	smoothSolver	2.115880e-03	5.065780e-07	1	2.064860e-03	6.724860e-07	1	4.835100e-04	1.585190e-07	1	false	smoothSolver	2.339760e-03	1.469670e-08	1	true	smoothSolver	1.514550e-03	1.252760e-08	1	true	DICPCG	4.495350e-04	1.739860e-05	66	true
0.0115        	smoothSolver	2.096350e-03	5.020580e-07	1	2.051100e-03	6.681050e-07	1	4.804770e-04	1.576210e-07	1	false	smoothSolver	2.320340e-03	1.460450e-08	1	true	smoothSolver	1.501350e-03	1.238870e-08	1	true	DICPCG	4.481040e-04	1.777460e-05	66	true
0.0116        	smoothSolver	2.077130e-03	4.976050e-07	1	2.037160e-03	6.637520e-07	1	4.774700e-04	1.567230e-07	1	false	smoothSolver	2.301260e-03	1.451350e-08	1	true	smoothSolver	1.488380e-03	1.225190e-08	1	true	DICPCG	4.337320e-04	1.725550e-05	66	true
0.0117        	smoothSolver	2.058210e-03	4.932200e-07	1	2.024110e-03	6.595930e-07	1	4.743950e-04	1.558160e-07	1	false	smoothSolver	2.282510e-03	1.442350e-08	1	true	smoothSolver	1.475630e-03	1.211700e-08	1	true	DICPCG	4.444530e-04	1.754770e-05	66	true