# Solver information
# Time        	U_solver      	Ux_initial    	Ux_final      	Ux_iters      	Uy_initial    	Uy_final      	Uy_iters      	Uz_initial    	Uz_final      	Uz_iters      	U_converged   	cA_solver     	cA_initial    	cA_final      	cA_iters      	cA_converged  	cB_solver     	cB_initial    	cB_final      	cB_iters      	cB_converged  	p_solver      	p_initial     	p_final       	p_iters       	p_converged   
0.0005        	smoothSolver	1.000000e+00	1.209260e-06	5	0.000000e+00	0.000000e+00	0	1.000000e+00	9.322950e-07	5	false	smoothSolver	1.000000e+00	3.039820e-04	1	true	smoothSolver	1.000000e+00	5.299470e-04	1	true	DICPCG	1.000000e+00	4.744810e-02	132	true
0.001         	smoothSolver	8.836960e-01	5.417430e-06	4	3.372850e-01	2.800690e-06	4	2.513970e-01	1.781700e-06	4	false	smoothSolver	1.930360e-01	5.272440e-05	1	true	smoothSolver	1.951360e-01	9.143100e-05	1	true	DICPCG	1.046840e-02	4.696320e-04	132	true
0.0015        	smoothSolver	7.497570e-01	4.495920e-06	4	1.951530e-01	1.568430e-06	4	1.118840e-01	7.647550e-07	4	false	smoothSolver	1.070740e-01	3.731800e-05	1	true	smoothSolver	1.081440e-01	6.401570e-05	1	true	DICPCG	7.464130e-03	3.710480e-04	116	true
0.002         	smoothSolver	6.916350e-02	6.021740e-06	3	4.693390e-02	6.300130e-06	3	1.229420e-02	1.237160e-06	3	false	smoothSolver	7.416370e-02	2.978520e-05	1	true	smoothSolver	7.481320e-02	5.022370e-05	1	true	DICPCG	2.768470e-02	1.254220e-03	123	true
0.0025        	smoothSolver	5.230040e-02	4.746950e-06	3	3.552690e-02	4.845010e-06	3	1.031240e-02	1.073670e-06	3	false	smoothSolver	5.679920e-02	2.514710e-05	1	true	smoothSolver	5.719740e-02	4.144800e-05	1	true	DICPCG	1.255910e-02	5.371120e-04	122	true
0.003         	smoothSolver	4.221570e-02	3.985960e-06	3	2.978130e-02	4.124390e-06	3	9.064060e-03	9.839310e-07	3	false	smoothSolver	4.606990e-02	2.198560e-05	1	true	smoothSolver	4.630180e-02	3.529830e-05	1	true	DICPCG	8.336410e-03	3.679970e-04	122	true
0.0035        	smoothSolver	3.516880e-02	3.442850e-06	3	2.600900e-02	3.646620e-06	3	8.126740e-03	9.135520e-07	3	false	smoothSolver	3.877560e-02	1.968630e-05	1	true	smoothSolver	3.889510e-02	3.072310e-05	1	true	DICPCG	6.185570e-03	3.064390e-04	122	true
0.004         	smoothSolver	3.063460e-02	3.032470e-06	3	2.330630e-02	3.299890e-06	3	7.364300e-03	8.516630e-07	3	false	smoothSolver	3.346870e-02	1.791620e-05	1	true	smoothSolver	3.353400e-02	2.716910e-05	1	true	DICPCG	4.708880e-03	2.194370e-04	123	true
0.0045        	smoothSolver	2.710390e-02	2.706370e-06	3	2.126300e-02	3.034390e-06	3	6.761160e-03	7.974630e-07	3	false	smoothSolver	2.945960e-02	1.651460e-05	1	true	smoothSolver	2.947340e-02	2.431430e-05	1	true	DICPCG	3.686100e-03	1.730430e-04	124	true
0.005         	smoothSolver	2.423370e-02	2.439140e-06	3	1.961370e-02	2.817300e-06	3	6.254400e-03	7.501570e-07	3	false	smoothSolver	2.633020e-02	1.537250e-05	1	true	smoothSolver	2.629120e-02	2.195990e-05	1	true	DICPCG	3.015830e-03	1.431530e-04	125	true
0.0055        	smoothSolver	2.186770e-02	2.219100e-06	3	1.821860e-02	2.632330e-06	3	5.814100e-03	7.084100e-07	3	false	smoothSolver	2.380590e-02	1.440940e-05	1	true	smoothSolver	2.373020e-02	1.997700e-05	1	true	DICPCG	2.543150e-03	1.197320e-04	126	true
0.006         	smoothSolver	1.992220e-02	2.034220e-06	3	1.700960e-02	2.471580e-06	3	5.423430e-03	6.710660e-07	3	false	smoothSolver	2.172450e-02	1.358040e-05	1	true	smoothSolver	2.162530e-02	1.827860e-05	1	true	DICPCG	2.221740e-03	1.000570e-04	127	true
0.0065        	smoothSolver	1.824400e-02	1.874800e-06	3	1.598780e-02	2.331740e-06	3	5.076470e-03	6.377020e-07	3	false	smoothSolver	1.997870e-02	1.285490e-05	1	true	smoothSolver	1.986360e-02	1.680220e-05	1	true	DICPCG	1.978060e-03	9.360100e-05	127	true
0.007         	smoothSolver	1.679390e-02	1.736510e-06	3	1.510100e-02	2.211180e-06	3	4.769260e-03	6.076760e-07	3	false	smoothSolver	1.850180e-02	1.221730e-05	1	true	smoothSolver	1.836720e-02	1.550350e-05	1	true	DICPCG	1.783710e-03	8.795450e-05	127	true
0.0075        	smoothSolver	1.552600e-02	1.615800e-06	3	1.430890e-02	2.107540e-06	3	4.498420e-03	5.803880e-07	3	false	smoothSolver	1.723700e-02	1.165070e-05	1	true	smoothSolver	1.708170e-02	1.435090e-05	1	true	DICPCG	1.673340e-03	8.178130e-05	127	true
0.008         	smoothSolver	1.442100e-02	1.509750e-06	3	1.360430e-02	2.017110e-06	3	4.254140e-03	5.556570e-07	3	false	smoothSolver	1.613580e-02	1.113830e-05	1	true	smoothSolver	1.596490e-02	1.331900e-05	1	true	DICPCG	1.550900e-03	7.630190e-05	127	true
0.0085        	smoothSolver	1.347240e-02	1.416970e-06	3	1.298960e-02	1.935790e-06	3	4.032970e-03	5.329940e-07	3	false	smoothSolver	1.516600e-02	1.066910e-05	1	true	smoothSolver	1.498530e-02	1.238840e-05	1	true	DICPCG	1.458550e-03	7.055540e-05	127	true
0.009         	smoothSolver	1.262490e-02	1.335060e-06	3	1.245660e-02	1.862190e-06	3	3.836840e-03	9.842200e-06	2	false	smoothSolver	1.430500e-02	1.023670e-05	1	true	smoothSolver	1.411910e-02	1.154410e-05	1	true	DICPCG	1.373020e-03	6.460470e-05	127	true
0.0095        	smoothSolver	1.186340e-02	1.262060e-06	3	1.197430e-02	1.794790e-06	3	3.660310e-03	9.453530e-06	2	false	smoothSolver	1.354140e-02	9.840600e-06	1	true	smoothSolver	1.334810e-02	1.077480e-05	1	true	DICPCG	1.318310e-03	6.302660e-05	126	true
0.01          	smoothSolver	1.117390e-02	1.197250e-06	3	1.153700e-02	1.732700e-06	3	3.499120e-03	9.094810e-06	2	false	smoothSolver	1.286020e-02	9.475930e-06	1	true	smoothSolver	1.265710e-02	1.007040e-05	1	true	DICPCG	1.265350e-03	6.013920e-05	125	true
0.0105        	smoothSolver	1.054970e-02	1.139250e-06	3	1.114420e-02	1.675840e-06	3	3.353170e-03	8.765460e-06	2	false	smoothSolver	1.224710e-02	9.137220e-06	1	true	smoothSolver	1.203410e-02	9.423040e-06	1	true	DICPCG	1.219150e-03	6.050770e-05	124	true
0.011         	smoothSolver	9.977310e-03	1.086010e-06	3	1.078180e-02	1.622880e-06	3	3.221020e-03	8.460620e-06	2	false	smoothSolver	1.168930e-02	8.818820e-06	1	true	smoothSolver	1.146970e-02	8.826430e-06	1	true	DICPCG	1.165200e-03	5.495760e-05	124	true
0.0115        	smoothSolver	9.461680e-03	1.037600e-06	3	1.044400e-02	1.573100e-06	3	3.098990e-03	8.178450e-06	2	false	smoothSolver	1.117920e-02	8.518440e-06	1	true	smoothSolver	1.095630e-02	8.275220e-06	1	true	DICPCG	1.124770e-03	5.132300e-05	124	true
0.012         	smoothSolver	8.992990e-03	9.934700e-07	3	1.012280e-02	1.525880e-06	3	2.985650e-03	7.915940e-06	2	false	smoothSolver	1.071290e-02	8.235850e-06	1	true	smoothSolver	1.048700e-02	7.764640e-06	1	true	DICPCG	1.097830e-03	4.802000e-05	124	true
0.0125        	smoothSolver	8.560840e-03	9.520890e-07	3	9.820590e-03	1.481520e-06	3	2.882110e-03	7.674770e-06	2	false	smoothSolver	1.028670e-02	7.970600e-06	1	true	smoothSolver	1.005630e-02	7.290600e-06	1	true	DICPCG	1.071300e-03	4.573500e-05	124	true
0.013         	smoothSolver	8.178910e-03	9.136060e-07	3	9.533360e-03	1.439760e-06	3	2.786200e-03	7.452120e-06	2	false	smoothSolver	9.895600e-03	7.720710e-06	1	true	smoothSolver	9.659740e-03	6.849830e-06	1	true	DICPCG	1.049290e-03	4.433260e-05	124	true
0.0135        	smoothSolver	7.829400e-03	8.780110e-07	3	9.260330e-03	1.400360e-06	3	2.696710e-03	7.243080e-06	2	false	smoothSolver	9.534110e-03	7.483630e-06	1	true	smoothSolver	9.293360e-03	6.439350e-06	1	true	DICPCG	1.026300e-03	4.359640e-05	124	true
0.014         	smoothSolver	7.504830e-03	8.448340e-07	3	9.001340e-03	1.363760e-06	3	2.613320e-03	7.046130e-06	2	false	smoothSolver	9.197490e-03	7.257080e-06	1	true	smoothSolver	8.953830e-03	6.056540e-06	1	true	DICPCG	1.010060e-03	4.362130e-05	124	true
0.0145        	smoothSolver	7.202560e-03	8.138650e-07	3	8.761670e-03	1.330460e-06	3	2.535770e-03	6.861220e-06	2	false	smoothSolver	8.883610e-03	7.040570e-06	1	true	smoothSolver	8.638340e-03	5.699130e-06	1	true	DICPCG	9.784780e-04	4.418730e-05	124	true
0.015         	smoothSolver	6.921420e-03	7.849660e-07	3	8.538080e-03	1.299090e-06	3	2.462850e-03	6.686040e-06	2	false	smoothSolver	8.591580e-03	6.834460e-06	1	true	smoothSolver	8.344490e-03	5.365130e-06	1	true	DICPCG	9.536960e-04	4.466130e-05	124	true
0.0155        	smoothSolver	6.660100e-03	7.578590e-07	3	8.332510e-03	1.269130e-06	3	2.394530e-03	6.520300e-06	2	false	smoothSolver	8.319920e-03	6.638450e-06	1	true	smoothSolver	8.070050e-03	5.052640e-06	1	true	DICPCG	9.323130e-04	4.551330e-05	124	true
0.016         	smoothSolver	6.419490e-03	7.324270e-07	3	8.138630e-03	1.240490e-06	3	2.330810e-03	6.364350e-06	2	false	smoothSolver	8.066250e-03	6.451450e-06	1	true	smoothSolver	7.813140e-03	4.760040e-06	1	true	DICPCG	9.144600e-04	4.250860e-05	125	true
0.0165        	smoothSolver	6.194660e-03	7.085190e-07	3	7.953590e-03	1.213130e-06	3	2.271260e-03	6.218000e-06	2	false	smoothSolver	7.828020e-03	6.272080e-06	1	true	smoothSolver	7.572210e-03	4.485890e-06	1	true	DICPCG	9.016480e-04	4.344330e-05	125	true
0.017         	smoothSolver	5.983350e-03	6.861310e-07	3	7.775570e-03	1.186990e-06	3	2.215100e-03	6.080520e-06	2	false	smoothSolver	7.603170e-03	6.099290e-06	1	true	smoothSolver	7.345730e-03	4.228810e-06	1	true	DICPCG	8.850280e-04	4.190540e-05	126	true
0.0175        	smoothSolver	5.784200e-03	6.650390e-07	3	7.604070e-03	1.161900e-06	3	2.161790e-03	5.950110e-06	2	false	smoothSolver	7.391100e-03	5.933110e-06	1	true	smoothSolver	7.132390e-03	3.987540e-06	1	true	DICPCG	8.727880e-04	4.260420e-05	126	true
0.018         	smoothSolver	5.596280e-03	6.450860e-07	3	7.441020e-03	1.137770e-06	3	2.111350e-03	5.825430e-06	2	false	smoothSolver	7.191460e-03	5.773700e-06	1	true	smoothSolver	6.931140e-03	3.761080e-06	1	true	DICPCG	8.514880e-04	3.978910e-05	127	true
0.0185        	smoothSolver	5.418460e-03	6.262900e-07	3	7.285650e-03	1.114520e-06	3	2.063380e-03	5.706970e-06	2	false	smoothSolver	7.003480e-03	5.620830e-06	1	true	smoothSolver	6.741090e-03	3.548500e-06	1	true	DICPCG	8.541170e-04	4.262690e-05	126	true
0.019         	smoothSolver	5.249840e-03	6.084640e-07	3	7.135660e-03	1.091960e-06	3	2.017900e-03	5.593450e-06	2	false	smoothSolver	6.825790e-03	5.473760e-06	1	true	smoothSolver	6.561250e-03	3.348820e-06	1	true	DICPCG	8.451530e-04	3.995280e-05	127	true
0.0195        	smoothSolver	5.089130e-03	5.914730e-07	3	6.990890e-03	1.070190e-06	3	1.974680e-03	5.484530e-06	2	false	smoothSolver	6.657080e-03	5.331720e-06	1	true	smoothSolver	6.390710e-03	3.161110e-06	1	true	DICPCG	8.189760e-04	3.862840e-05	127	true
0.02          	smoothSolver	4.936390e-03	5.752530e-07	3	6.849710e-03	1.049150e-06	3	1.933870e-03	5.380960e-06	2	false	smoothSolver	6.496340e-03	5.194180e-06	1	true	smoothSolver	6.228850e-03	2.984610e-06	1	true	DICPCG	7.989540e-04	3.866870e-05	127	true
0.0205        	smoothSolver	4.791330e-03	5.597980e-07	3	6.712500e-03	1.028770e-06	3	1.895330e-03	5.282800e-06	2	false	smoothSolver	6.343350e-03	5.061190e-06	1	true	smoothSolver	6.075100e-03	2.818630e-06	1	true	DICPCG	7.790780e-04	3.831840e-05	127	true
0.021         	smoothSolver	4.653450e-03	5.450690e-07	3	6.579040e-03	1.009060e-06	3	1.858350e-03	5.189890e-06	2	false	smoothSolver	6.198050e-03	4.932930e-06	1	true	smoothSolver	5.928800e-03	2.662500e-06	1	true	DICPCG	7.625090e-04	3.757440e-05	127	true
0.0215        	smoothSolver	4.522490e-03	5.310360e-07	3	6.449010e-03	9.899210e-07	3	1.822830e-03	5.101030e-06	2	false	smoothSolver	6.060120e-03	4.809300e-06	1	true	smoothSolver	5.789390e-03	2.515540e-06	1	true	DICPCG	7.514880e-04	3.670250e-05	127	true
0.022         	smoothSolver	4.399250e-03	5.176340e-07	3	6.323920e-03	9.714290e-07	3	1.788800e-03	5.015590e-06	2	false	smoothSolver	5.928670e-03	4.689760e-06	1	true	smoothSolver	5.656390e-03	2.377180e-06	1	true	DICPCG	7.466740e-04	3.566340e-05	127	true
0.0225        	smoothSolver	4.282030e-03	5.048240e-07	3	6.203000e-03	9.535890e-07	3	1.756370e-03	4.933090e-06	2	false	smoothSolver	5.802910e-03	4.573830e-06	1	true	smoothSolver	5.529400e-03	2.246910e-06	1	true	DICPCG	7.377140e-04	3.458000e-05	127	true
0.023         	smoothSolver	4.170190e-03	9.957180e-06	2	6.086480e-03	9.364490e-07	3	1.725390e-03	4.853920e-06	2	false	smoothSolver	5.682300e-03	4.461190e-06	1	true	smoothSolver	5.408030e-03	2.124240e-06	1	true	DICPCG	7.552290e-04	3.762420e-05	125	true
0.0235        	smoothSolver	4.063010e-03	9.713260e-06	2	5.974390e-03	9.198440e-07	3	1.695400e-03	4.777290e-06	2	false	smoothSolver	5.566780e-03	4.351930e-06	1	true	smoothSolver	5.291920e-03	2.008730e-06	1	true	DICPCG	7.269910e-04	3.432860e-05	126	true
0.024         	smoothSolver	3.960790e-03	9.480670e-06	2	5.868360e-03	9.039570e-07	3	1.667050e-03	4.704180e-06	2	false	smoothSolver	5.456380e-03	4.246150e-06	1	true	smoothSolver	5.180740e-03	1.899970e-06	1	true	DICPCG	6.984530e-04	3.404320e-05	125	true
0.0245        	smoothSolver	3.862850e-03	9.258940e-06	2	5.765330e-03	8.886360e-07	3	1.640120e-03	4.634660e-06	2	false	smoothSolver	5.350940e-03	4.143830e-06	1	true	smoothSolver	5.074170e-03	1.797590e-06	1	true	DICPCG	6.998160e-04	3.207960e-05	125	true
0.025         	smoothSolver	3.769020e-03	9.046460e-06	2	5.666560e-03	8.737930e-07	3	1.614160e-03	4.568260e-06	2	false	smoothSolver	5.249890e-03	4.044600e-06	1	true	smoothSolver	4.971910e-03	1.701250e-06	1	true	DICPCG	6.805430e-04	3.339740e-05	124	true
0.0255        	smoothSolver	3.679050e-03	8.843030e-06	2	5.570330e-03	8.592950e-07	3	1.588960e-03	4.503860e-06	2	false	smoothSolver	5.152730e-03	3.948120e-06	1	true	smoothSolver	4.873730e-03	1.610570e-06	1	true	DICPCG	6.832420e-04	3.078880e-05	124	true
0.026         	smoothSolver	3.592540e-03	8.647540e-06	2	5.476140e-03	8.451280e-07	3	1.564800e-03	4.441800e-06	2	false	smoothSolver	5.059100e-03	3.854210e-06	1	true	smoothSolver	4.779380e-03	1.525230e-06	1	true	DICPCG	6.843630e-04	3.290100e-05	123	true
0.0265        	smoothSolver	3.509830e-03	8.459700e-06	2	5.386280e-03	8.314330e-07	3	1.541420e-03	4.381270e-06	2	false	smoothSolver	4.968900e-03	3.762810e-06	1	true	smoothSolver	4.688630e-03	1.444940e-06	1	true	DICPCG	6.560160e-04	2.977120e-05	123	true
0.027         	smoothSolver	3.430360e-03	8.279240e-06	2	5.297600e-03	8.179770e-07	3	1.518810e-03	4.322580e-06	2	false	smoothSolver	4.882110e-03	3.673980e-06	1	true	smoothSolver	4.601280e-03	1.369440e-06	1	true	DICPCG	6.444110e-04	3.123010e-05	118	true
0.0275        	smoothSolver	3.353740e-03	8.105400e-06	2	5.210560e-03	8.048220e-07	3	1.497250e-03	4.265770e-06	2	false	smoothSolver	4.798740e-03	3.587750e-06	1	true	smoothSolver	4.517140e-03	1.298520e-06	1	true	DICPCG	6.335790e-04	3.026610e-05	116	true
0.028         	smoothSolver	3.280020e-03	7.938040e-06	2	5.126560e-03	7.920540e-07	3	1.476490e-03	4.211110e-06	2	false	smoothSolver	4.718450e-03	3.503910e-06	1	true	smoothSolver	4.436050e-03	1.231950e-06	1	true	DICPCG	6.235920e-04	2.953270e-05	115	true
0.0285        	smoothSolver	3.209110e-03	7.776950e-06	2	5.044800e-03	7.796460e-07	3	1.456530e-03	4.158390e-06	2	false	smoothSolver	4.640950e-03	3.422270e-06	1	true	smoothSolver	4.357850e-03	1.169550e-06	1	true	DICPCG	6.164870e-04	3.023280e-05	115	true
0.029         	smoothSolver	3.140800e-03	7.621500e-06	2	4.964570e-03	7.675320e-07	3	1.437160e-03	4.107730e-06	2	false	smoothSolver	4.566050e-03	3.342710e-06	1	true	smoothSolver	4.282380e-03	1.111140e-06	1	true	DICPCG	6.048690e-04	2.891090e-05	115	true
0.0295        	smoothSolver	3.075070e-03	7.471560e-06	2	4.886320e-03	7.557270e-07	3	1.418370e-03	4.058840e-06	2	false	smoothSolver	4.493650e-03	3.265190e-06	1	true	smoothSolver	4.209490e-03	1.056610e-06	1	true	DICPCG	5.992940e-04	2.763210e-05	114	true
0.03          	smoothSolver	3.012100e-03	7.327000e-06	2	4.810270e-03	7.441600e-07	3	1.400100e-03	4.011120e-06	2	false	smoothSolver	4.423730e-03	3.189730e-06	1	true	smoothSolver	4.139070e-03	1.005820e-06	1	true	DICPCG	5.858850e-04	2.740920e-05	113	true
0.0305        	smoothSolver	2.951510e-03	7.188480e-06	2	4.736460e-03	7.328760e-07	3	1.382460e-03	3.964400e-06	2	false	smoothSolver	4.356280e-03	3.116320e-06	1	true	smoothSolver	4.070990e-03	9.586630e-07	1	true	DICPCG	5.718810e-04	2.506250e-05	113	true
0.031         	smoothSolver	2.893030e-03	7.054920e-06	2	4.663320e-03	7.217430e-07	3	1.365520e-03	3.919020e-06	2	false	smoothSolver	4.291090e-03	3.044820e-06	1	true	smoothSolver	4.005130e-03	9.150370e-07	1	true	DICPCG	5.657360e-04	2.703880e-05	112	true
0.0315        	smoothSolver	2.836580e-03	6.925750e-06	2	4.592150e-03	7.108790e-07	3	1.349180e-03	3.875000e-06	2	false	smoothSolver	4.227930e-03	2.975090e-06	1	true	smoothSolver	3.941370e-03	8.748620e-07	1	true	DICPCG	5.632370e-04	2.603120e-05	112	true
0.032         	smoothSolver	2.782180e-03	6.800760e-06	2	4.522490e-03	7.002980e-07	3	1.333440e-03	3.832480e-06	2	false	smoothSolver	4.166670e-03	2.907040e-06	1	true	smoothSolver	3.879620e-03	8.380720e-07	1	true	DICPCG	5.592810e-04	2.604960e-05	112	true
0.0325        	smoothSolver	2.729910e-03	6.679770e-06	2	4.454730e-03	6.900000e-07	3	1.318170e-03	3.790990e-06	2	false	smoothSolver	4.107260e-03	2.840640e-06	1	true	smoothSolver	3.819790e-03	8.046510e-07	1	true	DICPCG	5.492750e-04	2.569150e-05	112	true
0.033         	smoothSolver	2.679980e-03	6.562780e-06	2	4.388880e-03	6.799530e-07	3	1.303320e-03	3.750990e-06	2	false	smoothSolver	4.049700e-03	2.775900e-06	1	true	smoothSolver	3.761800e-03	7.745540e-07	1	true	DICPCG	5.450610e-04	2.542530e-05	112	true
0.0335        	smoothSolver	2.631670e-03	6.450180e-06	2	4.324060e-03	6.700710e-07	3	1.288810e-03	3.712130e-06	2	false	smoothSolver	3.993980e-03	2.712840e-06	1	true	smoothSolver	3.705560e-03	7.477240e-07	1	true	DICPCG	5.341030e-04	2.546680e-05	112	true
0.034         	smoothSolver	2.584860e-03	6.341100e-06	2	4.260790e-03	6.603950e-07	3	1.274700e-03	3.674240e-06	2	false	smoothSolver	3.939980e-03	2.651370e-06	1	true	smoothSolver	3.651000e-03	7.241430e-07	1	true	DICPCG	5.241620e-04	2.540250e-05	112	true
0.0345        	smoothSolver	2.539350e-03	6.235370e-06	2	4.199470e-03	6.509590e-07	3	1.261160e-03	3.637220e-06	2	false	smoothSolver	3.887550e-03	2.591390e-06	1	true	smoothSolver	3.598040e-03	7.038280e-07	1	true	DICPCG	5.148900e-04	2.518150e-05	112	true
0.035         	smoothSolver	2.495030e-03	6.132340e-06	2	4.139410e-03	6.417190e-07	3	1.247880e-03	3.600780e-06	2	false	smoothSolver	3.836600e-03	2.532840e-06	1	true	smoothSolver	3.546620e-03	6.867460e-07	1	true	DICPCG	5.095600e-04	2.488910e-05	112	true
0.0355        	smoothSolver	2.451820e-03	6.031780e-06	2	4.080520e-03	6.326750e-07	3	1.235030e-03	3.565360e-06	2	false	smoothSolver	3.787070e-03	2.475680e-06	1	true	smoothSolver	3.496650e-03	6.728920e-07	1	true	DICPCG	4.998850e-04	2.437740e-05	112	true
0.036         	smoothSolver	2.409740e-03	5.933850e-06	2	4.022960e-03	6.238650e-07	3	1.222630e-03	3.531020e-06	2	false	smoothSolver	3.738940e-03	2.419910e-06	1	true	smoothSolver	3.448090e-03	6.622660e-07	1	true	DICPCG	4.934220e-04	2.323660e-05	112	true
0.0365        	smoothSolver	2.368880e-03	5.838480e-06	2	3.966490e-03	6.152140e-07	3	1.210540e-03	3.497280e-06	2	false	smoothSolver	3.692190e-03	2.365500e-06	1	true	smoothSolver	3.400870e-03	6.548600e-07	1	true	DICPCG	4.840240e-04	2.216430e-05	112	true
0.037         	smoothSolver	2.329180e-03	5.745670e-06	2	3.911200e-03	6.067270e-07	3	1.198730e-03	3.464500e-06	2	false	smoothSolver	3.646720e-03	2.312400e-06	1	true	smoothSolver	3.354930e-03	6.506870e-07	1	true	DICPCG	4.829480e-04	2.166450e-05	112	true
0.0375        	smoothSolver	2.290640e-03	5.655270e-06	2	3.857450e-03	5.984360e-07	3	1.187190e-03	3.432640e-06	2	false	smoothSolver	3.602440e-03	2.260530e-06	1	true	smoothSolver	3.310230e-03	6.497430e-07	1	true	DICPCG	4.773370e-04	2.083370e-05	112	true
0.038         	smoothSolver	2.253140e-03	5.567190e-06	2	3.804280e-03	5.902190e-07	3	1.175870e-03	3.401080e-06	2	false	smoothSolver	3.559310e-03	2.209870e-06	1	true	smoothSolver	3.266720e-03	6.520110e-07	1	true	DICPCG	4.657760e-04	2.044400e-05	112	true
0.0385        	smoothSolver	2.216600e-03	5.481380e-06	2	3.752420e-03	5.821950e-07	3	1.164870e-03	3.370140e-06	2	false	smoothSolver	3.517320e-03	2.160420e-06	1	true	smoothSolver	3.224360e-03	6.574680e-07	1	true	DICPCG	4.609620e-04	2.301640e-05	111	true
0.039         	smoothSolver	2.180950e-03	5.397810e-06	2	3.701600e-03	5.743280e-07	3	1.154180e-03	3.340060e-06	2	false	smoothSolver	3.476450e-03	2.112150e-06	1	true	smoothSolver	3.183090e-03	6.660820e-07	1	true	DICPCG	4.542130e-04	2.265260e-05	111	true
0.0395        	smoothSolver	2.146200e-03	5.316310e-06	2	3.651620e-03	5.665950e-07	3	1.143620e-03	3.310460e-06	2	false	smoothSolver	3.436690e-03	2.065060e-06	1	true	smoothSolver	3.142900e-03	6.778290e-07	1	true	DICPCG	4.431650e-04	2.163380e-05	111	true
0.04          	smoothSolver	2.112310e-03	5.236770e-06	2	3.602490e-03	5.590090e-07	3	1.133290e-03	3.281540e-06	2	false	smoothSolver	3.397940e-03	2.019100e-06	1	true	smoothSolver	3.103720e-03	6.926470e-07	1	true	DICPCG	4.401270e-04	2.168700e-05	111	true
0.0405        	smoothSolver	2.079280e-03	5.159210e-06	2	3.554120e-03	5.515550e-07	3	1.123200e-03	3.253270e-06	2	false	smoothSolver	3.360130e-03	1.974210e-06	1	true	smoothSolver	3.065510e-03	7.104720e-07	1	true	DICPCG	4.380010e-04	2.160770e-05	111	true
0.041         	smoothSolver	2.047120e-03	5.083470e-06	2	3.506870e-03	5.442680e-07	3	1.113300e-03	3.225310e-06	2	false	smoothSolver	3.323230e-03	1.930380e-06	1	true	smoothSolver	3.028260e-03	7.312370e-07	1	true	DICPCG	4.310840e-04	2.139160e-05	111	true
0.0415        	smoothSolver	2.015760e-03	5.009490e-06	2	3.460680e-03	9.952080e-06	2	1.103600e-03	3.197770e-06	2	false	smoothSolver	3.287220e-03	1.887580e-06	1	true	smoothSolver	2.991910e-03	7.548460e-07	1	true	DICPCG	4.200620e-04	2.095140e-05	111	true
0.042         	smoothSolver	1.985180e-03	4.937210e-06	2	3.415150e-03	9.820830e-06	2	1.094120e-03	3.170720e-06	2	false	smoothSolver	3.252070e-03	1.845800e-06	1	true	smoothSolver	2.956450e-03	7.812120e-07	1	true	DICPCG	4.154020e-04	1.786360e-05	112	true
0.0425        	smoothSolver	1.955380e-03	4.866590e-06	2	3.370580e-03	9.692410e-06	2	1.084930e-03	3.144210e-06	2	false	smoothSolver	3.217800e-03	1.805040e-06	1	true	smoothSolver	2.921830e-03	8.102130e-07	1	true	DICPCG	4.097440e-04	2.032710e-05	111	true
0.043         	smoothSolver	1.926330e-03	4.797520e-06	2	3.326880e-03	9.566270e-06	2	1.075820e-03	3.118190e-06	2	false	smoothSolver	3.184340e-03	1.765260e-06	1	true	smoothSolver	2.888020e-03	8.417290e-07	1	true	DICPCG	4.021550e-04	1.747900e-05	112	true
0.0435        	smoothSolver	1.897990e-03	4.729900e-06	2	3.284000e-03	9.442670e-06	2	1.066900e-03	3.092640e-06	2	false	smoothSolver	3.151650e-03	1.726420e-06	1	true	smoothSolver	2.854990e-03	8.756290e-07	1	true	DICPCG	3.969420e-04	1.964460e-05	111	true
0.044         	smoothSolver	1.870340e-03	4.663810e-06	2	3.241800e-03	9.321310e-06	2	1.058060e-03	3.067560e-06	2	false	smoothSolver	3.119710e-03	1.688500e-06	1	true	smoothSolver	2.822730e-03	9.117720e-07	1	true	DICPCG	3.951120e-04	1.969800e-05	111	true
0.0445        	smoothSolver	1.843330e-03	4.599220e-06	2	3.200470e-03	9.202500e-06	2	1.049380e-03	3.042910e-06	2	false	smoothSolver	3.088500e-03	1.651510e-06	1	true	smoothSolver	2.791190e-03	9.500230e-07	1	true	DICPCG	3.882310e-04	1.677820e-05	112	true
0.045         	smoothSolver	1.816930e-03	4.536030e-06	2	3.159980e-03	9.085750e-06	2	1.040750e-03	3.018380e-06	2	false	smoothSolver	3.058010e-03	1.615460e-06	1	true	smoothSolver	2.760380e-03	9.902210e-07	1	true	DICPCG	3.832590e-04	1.678380e-05	112	true
0.0455        	smoothSolver	1.791090e-03	4.474220e-06	2	3.120310e-03	8.971200e-06	2	1.032380e-03	2.994150e-06	2	false	smoothSolver	3.028220e-03	1.580310e-06	1	true	smoothSolver	2.730260e-03	1.032190e-06	1	true	DICPCG	3.789800e-04	1.645300e-05	112	true
0.046         	smoothSolver	1.765810e-03	4.413750e-06	2	3.081380e-03	8.858690e-06	2	1.024220e-03	2.970390e-06	2	false	smoothSolver	2.999100e-03	1.546030e-06	1	true	smoothSolver	2.700820e-03	1.075740e-06	1	true	DICPCG	3.722610e-04	1.621590e-05	112	true
0.0465        	smoothSolver	1.741060e-03	4.354530e-06	2	3.043080e-03	8.747540e-06	2	1.016200e-03	2.947030e-06	2	false	smoothSolver	2.970600e-03	1.512590e-06	1	true	smoothSolver	2.672030e-03	1.120710e-06	1	true	DICPCG	3.675580e-04	1.832700e-05	111	true
0.047         	smoothSolver	1.716810e-03	4.296510e-06	2	3.005500e-03	8.638180e-06	2	1.008320e-03	2.924100e-06	2	false	smoothSolver	2.942700e-03	1.480000e-06	1	true	smoothSolver	2.643880e-03	1.166890e-06	1	true	DICPCG	3.624690e-04	1.595150e-05	112	true
0.0475        	smoothSolver	1.693100e-03	4.239730e-06	2	2.968740e-03	8.531000e-06	2	1.000510e-03	2.901380e-06	2	false	smoothSolver	2.915380e-03	1.448220e-06	1	true	smoothSolver	2.616330e-03	1.214090e-06	1	true	DICPCG	3.571910e-04	1.777870e-05	111	true
0.048         	smoothSolver	1.669920e-03	4.184170e-06	2	2.932530e-03	8.425510e-06	2	9.928170e-04	2.879060e-06	2	false	smoothSolver	2.888650e-03	1.417270e-06	1	true	smoothSolver	2.589360e-03	1.262120e-06	1	true	DICPCG	3.546490e-04	1.763650e-05	111	true
0.0485        	smoothSolver	1.647210e-03	4.129730e-06	2	2.896830e-03	8.321570e-06	2	9.852450e-04	2.856920e-06	2	false	smoothSolver	2.862490e-03	1.387160e-06	1	true	smoothSolver	2.562960e-03	1.310790e-06	1	true	DICPCG	3.511920e-04	1.750570e-05	111	true
0.049         	smoothSolver	1.624990e-03	4.076420e-06	2	2.861980e-03	8.219900e-06	2	9.777290e-04	2.834800e-06	2	false	smoothSolver	2.836900e-03	1.357840e-06	1	true	smoothSolver	2.537120e-03	1.359900e-06	1	true	DICPCG	3.449800e-04	1.698000e-05	111	true
0.0495        	smoothSolver	1.603230e-03	4.024190e-06	2	2.827590e-03	8.119520e-06	2	9.704390e-04	2.813050e-06	2	false	smoothSolver	2.811850e-03	1.329300e-06	1	true	smoothSolver	2.511810e-03	1.409270e-06	1	true	DICPCG	3.401860e-04	1.677320e-05	111	true
0.05          	smoothSolver	1.581910e-03	3.973050e-06	2	2.793780e-03	8.020900e-06	2	9.632160e-04	2.791530e-06	2	false	smoothSolver	2.787320e-03	1.301520e-06	1	true	smoothSolver	2.487030e-03	1.458710e-06	1	true	DICPCG	3.350860e-04	1.631410e-05	111	true
0.0505        	smoothSolver	1.561000e-03	3.922930e-06	2	2.760400e-03	7.923790e-06	2	9.561470e-04	2.770610e-06	2	false	smoothSolver	2.763260e-03	1.274500e-06	1	true	smoothSolver	2.462750e-03	1.508040e-06	1	true	DICPCG	3.327590e-04	1.601260e-05	111	true
0.051         	smoothSolver	1.540510e-03	3.873830e-06	2	2.727540e-03	7.828310e-06	2	9.491540e-04	2.749970e-06	2	false	smoothSolver	2.739690e-03	1.248230e-06	1	true	smoothSolver	2.438960e-03	1.557100e-06	1	true	DICPCG	3.263670e-04	1.551130e-05	111	true
0.0515        	smoothSolver	1.520460e-03	3.825710e-06	2	2.695140e-03	7.733870e-06	2	9.422360e-04	2.729560e-06	2	false	smoothSolver	2.716580e-03	1.222690e-06	1	true	smoothSolver	2.415650e-03	1.605720e-06	1	true	DICPCG	3.221090e-04	1.529000e-05	111	true
0.052         	smoothSolver	1.500800e-03	3.778550e-06	2	2.663400e-03	7.641110e-06	2	9.353660e-04	2.709290e-06	2	false	smoothSolver	2.693920e-03	1.197840e-06	1	true	smoothSolver	2.392800e-03	1.653740e-06	1	true	DICPCG	3.182410e-04	1.454140e-05	111	true
0.0525        	smoothSolver	1.481520e-03	3.732290e-06	2	2.632170e-03	7.549740e-06	2	9.286400e-04	2.689230e-06	2	false	smoothSolver	2.671700e-03	1.173710e-06	1	true	smoothSolver	2.370390e-03	1.701010e-06	1	true	DICPCG	3.148430e-04	1.406280e-05	111	true
0.053         	smoothSolver	1.462630e-03	3.686910e-06	2	2.601390e-03	7.459220e-06	2	9.220190e-04	2.669260e-06	2	false	smoothSolver	2.649910e-03	1.150250e-06	1	true	smoothSolver	2.348410e-03	1.747380e-06	1	true	DICPCG	3.091080e-04	1.496250e-05	110	true
0.0535        	smoothSolver	1.444120e-03	3.642320e-06	2	2.571140e-03	7.370150e-06	2	9.155760e-04	2.649750e-06	2	false	smoothSolver	2.628540e-03	1.127510e-06	1	true	smoothSolver	2.326850e-03	1.792730e-06	1	true	DICPCG	3.075570e-04	1.510220e-05	90	true
0.054         	smoothSolver	1.425950e-03	3.598520e-06	2	2.541330e-03	7.282330e-06	2	9.091840e-04	2.630490e-06	2	false	smoothSolver	2.607570e-03	1.105470e-06	1	true	smoothSolver	2.305690e-03	1.836940e-06	1	true	DICPCG	3.038110e-04	1.448780e-05	91	true
0.0545        	smoothSolver	1.408150e-03	3.555550e-06	2	2.512070e-03	7.196370e-06	2	9.029010e-04	2.611490e-06	2	false	smoothSolver	2.587010e-03	1.084120e-06	1	true	smoothSolver	2.284930e-03	1.879900e-06	1	true	DICPCG	3.004190e-04	1.349390e-05	90	true
0.055         	smoothSolver	1.390700e-03	3.513330e-06	2	2.483030e-03	7.111110e-06	2	8.966190e-04	2.592670e-06	2	false	smoothSolver	2.566840e-03	1.063430e-06	1	true	smoothSolver	2.264560e-03	1.921520e-06	1	true	DICPCG	2.945100e-04	1.427790e-05	89	true
0.0555        	smoothSolver	1.373580e-03	3.471870e-06	2	2.454680e-03	7.027350e-06	2	8.903910e-04	2.574070e-06	2	false	smoothSolver	2.547050e-03	1.043400e-06	1	true	smoothSolver	2.244560e-03	1.961710e-06	1	true	DICPCG	2.887770e-04	1.301810e-05	89	true
0.056         	smoothSolver	1.356770e-03	3.431210e-06	2	2.426750e-03	6.944760e-06	2	8.842270e-04	2.555620e-06	2	false	smoothSolver	2.527640e-03	1.024010e-06	1	true	smoothSolver	2.224930e-03	2.000400e-06	1	true	DICPCG	2.849870e-04	1.365700e-05	89	true
0.0565        	smoothSolver	1.340250e-03	3.391340e-06	2	2.399180e-03	6.863290e-06	2	8.782290e-04	2.537450e-06	2	false	smoothSolver	2.508570e-03	1.005250e-06	1	true	smoothSolver	2.205650e-03	2.037520e-06	1	true	DICPCG	2.822610e-04	1.269210e-05	89	true
0.057         	smoothSolver	1.324020e-03	3.352190e-06	2	2.372030e-03	6.783040e-06	2	8.723020e-04	2.519350e-06	2	false	smoothSolver	2.489850e-03	9.871440e-07	1	true	smoothSolver	2.186730e-03	2.073010e-06	1	true	DICPCG	2.801450e-04	1.299190e-05	90	true
0.0575        	smoothSolver	1.308090e-03	3.313750e-06	2	2.345320e-03	6.704090e-06	2	8.664900e-04	2.501650e-06	2	false	smoothSolver	2.471480e-03	9.696740e-07	1	true	smoothSolver	2.168160e-03	2.106840e-06	1	true	DICPCG	2.780590e-04	1.323120e-05	90	true
0.058         	smoothSolver	1.292450e-03	3.276000e-06	2	2.319090e-03	6.626100e-06	2	8.607650e-04	2.484180e-06	2	false	smoothSolver	2.453450e-03	9.528250e-07	1	true	smoothSolver	2.149920e-03	2.138980e-06	1	true	DICPCG	2.742220e-04	1.297970e-05	91	true
0.0585        	smoothSolver	1.277110e-03	3.238880e-06	2	2.293110e-03	6.548900e-06	2	8.550990e-04	2.466930e-06	2	false	smoothSolver	2.435760e-03	9.365940e-07	1	true	smoothSolver	2.132010e-03	2.169380e-06	1	true	DICPCG	2.706630e-04	1.303180e-05	108	true