# Continuity error
# Time        # Local       # Global      # Cumulative  
0.0001        6.395840e-08	-1.330773e-10	-1.330773e-10
0.0002        2.179639e-08	1.458387e-10	1.276146e-11
0.0003        2.327107e-10	6.980445e-12	1.974190e-11
0.0004        2.199818e-10	-6.533572e-12	1.320833e-11
0.0005        1.676653e-10	5.801407e-12	1.900974e-11
0.0006        1.828372e-10	-1.496848e-11	4.041258e-12
0.0007        1.530549e-10	-2.370756e-11	-1.966631e-11
0.0008        1.728142e-10	-1.698045e-11	-3.664675e-11
0.0009        1.496587e-10	-1.674980e-11	-5.339655e-11
0.001         1.581398e-10	-1.812691e-11	-7.152347e-11
0.0011        1.482762e-10	-1.812466e-11	-8.964812e-11
0.0012        1.466107e-10	-1.462325e-11	-1.042714e-10
0.0013        1.391299e-10	-1.449588e-11	-1.187673e-10
0.0014        1.377762e-10	-1.851415e-11	-1.372814e-10
0.0015        1.337400e-10	-1.906552e-11	-1.563469e-10
0.0016        1.237893e-10	-1.546028e-11	-1.718072e-10
0.0017        1.201878e-10	-1.460267e-11	-1.864099e-10
0.0018        1.233423e-10	-1.773360e-11	-2.041435e-10
0.0019        1.210365e-10	-1.370122e-11	-2.178447e-10
0.002         1.191227e-10	-1.372614e-11	-2.315708e-10
0.0021        1.079283e-10	-1.192218e-11	-2.434930e-10
0.0022        9.327122e-11	-1.119572e-11	-2.546887e-10
0.0023        9.428857e-11	-1.216877e-11	-2.668575e-10
0.0024        9.743675e-11	8.641559e-13	-2.659934e-10
0.0025        1.070666e-10	-1.103677e-11	-2.770301e-10
0.0026        9.990724e-11	-9.355721e-13	-2.779657e-10
0.0027        9.682279e-11	3.098001e-13	-2.776559e-10
0.0028        8.249109e-11	5.446012e-13	-2.771113e-10
0.0029        8.799676e-11	-1.889668e-12	-2.790010e-10
0.003         9.435410e-11	1.296374e-13	-2.788713e-10
0.0031        9.189169e-11	1.140807e-13	-2.787572e-10
0.0032        8.769752e-11	3.052447e-13	-2.784520e-10
0.0033        8.985299e-11	-4.389981e-13	-2.788910e-10
0.0034        9.141209e-11	-3.113537e-12	-2.820045e-10
0.0035        8.119990e-11	-2.034029e-12	-2.840386e-10
0.0036        7.820999e-11	-1.929767e-12	-2.859683e-10
0.0037        8.129489e-11	-7.003258e-13	-2.866687e-10
0.0038        8.080801e-11	-1.974885e-12	-2.886435e-10
0.0039        8.881730e-11	-2.429243e-12	-2.910728e-10
0.004         8.176303e-11	-1.012396e-12	-2.920852e-10
0.0041        7.857746e-11	-1.025552e-12	-2.931107e-10
0.0042        7.650389e-11	-1.001354e-12	-2.941121e-10
0.0043        7.650853e-11	-3.209467e-12	-2.973216e-10
0.0044        6.255828e-11	-1.282522e-12	-2.986041e-10
0.0045        7.199879e-11	-1.473232e-12	-3.000773e-10
0.0046        6.712409e-11	-9.061198e-13	-3.009834e-10
0.0047        6.842425e-11	6.154572e-14	-3.009219e-10
0.0048        6.770650e-11	-1.819114e-12	-3.027410e-10
0.0049        7.847747e-11	-4.116197e-13	-3.031526e-10
0.005         7.971396e-11	3.314523e-13	-3.028212e-10
0.0051        7.443706e-11	-3.066251e-12	-3.058874e-10
0.0052        7.696529e-11	1.673293e-12	-3.042141e-10
0.0053        7.823299e-11	-2.288199e-13	-3.044429e-10
0.0054        8.111067e-11	-2.900752e-16	-3.044432e-10
0.0055        7.252830e-11	1.207880e-12	-3.032354e-10
0.0056        8.086238e-11	7.939501e-12	-2.952959e-10
0.0057        8.119606e-11	7.928908e-12	-2.873669e-10
0.0058        8.858609e-11	2.595489e-12	-2.847715e-10
0.0059        8.754605e-11	5.612345e-12	-2.791591e-10
0.006         8.283932e-11	7.816530e-12	-2.713426e-10
0.0061        8.251011e-11	1.680515e-12	-2.696621e-10
0.0062        8.197622e-11	2.080946e-12	-2.675811e-10
0.0063        8.200382e-11	-1.081428e-12	-2.686625e-10
0.0064        8.351125e-11	1.653676e-12	-2.670089e-10
0.0065        8.657278e-11	-6.084635e-13	-2.676173e-10
0.0066        8.486295e-11	-8.611559e-13	-2.684785e-10
0.0067        8.343098e-11	2.273215e-12	-2.662053e-10
0.0068        8.515556e-11	1.418703e-12	-2.647866e-10
0.0069        8.077851e-11	2.456153e-12	-2.623304e-10
0.007         7.447831e-11	8.954028e-13	-2.614350e-10
0.0071        8.046268e-11	5.636046e-13	-2.608714e-10
0.0072        7.888738e-11	5.861860e-13	-2.602852e-10
0.0073        8.391518e-11	8.510758e-13	-2.594341e-10
0.0074        8.283960e-11	2.309192e-12	-2.571250e-10
0.0075        8.259991e-11	5.624947e-12	-2.515000e-10
0.0076        7.367413e-11	4.870733e-13	-2.510129e-10
0.0077        8.307280e-11	9.579371e-13	-2.500550e-10
0.0078        8.238508e-11	9.306705e-13	-2.491243e-10
0.0079        7.812621e-11	1.106517e-12	-2.480178e-10
0.008         8.386624e-11	9.887538e-13	-2.470291e-10
0.0081        8.337260e-11	1.575884e-12	-2.454532e-10
0.0082        8.187812e-11	8.658332e-13	-2.445873e-10
0.0083        8.279884e-11	2.333936e-12	-2.422534e-10
0.0084        7.741131e-11	2.572358e-12	-2.396810e-10
0.0085        7.718358e-11	2.335363e-12	-2.373457e-10
0.0086        8.236455e-11	1.245104e-12	-2.361006e-10
0.0087        7.711709e-11	1.252099e-12	-2.348485e-10
0.0088        8.079631e-11	2.593609e-12	-2.322549e-10
0.0089        7.676497e-11	1.409682e-12	-2.308452e-10
0.009         8.062160e-11	1.272449e-12	-2.295727e-10
0.0091        7.700176e-11	1.342770e-12	-2.282300e-10
0.0092        7.478297e-11	1.378672e-12	-2.268513e-10
0.0093        7.670000e-11	-2.906535e-13	-2.271419e-10
0.0094        8.180332e-11	3.424887e-12	-2.237171e-10
0.0095        8.176869e-11	-4.227929e-12	-2.279450e-10
0.0096        7.937768e-11	6.880542e-13	-2.272569e-10
0.0097        7.896533e-11	-1.801357e-13	-2.274371e-10
0.0098        7.854416e-11	8.785282e-13	-2.265585e-10
0.0099        7.533929e-11	-1.862551e-13	-2.267448e-10
0.01          7.945741e-11	1.657900e-12	-2.250869e-10
0.0101        7.984941e-11	1.803287e-12	-2.232836e-10
0.0102        7.875437e-11	1.686707e-12	-2.215969e-10
0.0103        8.119681e-11	1.748143e-12	-2.198488e-10
0.0104        8.014144e-11	1.977859e-12	-2.178709e-10
0.0105        7.219088e-11	-6.035382e-14	-2.179313e-10
0.0106        7.915179e-11	1.648908e-12	-2.162823e-10
0.0107        8.042684e-11	1.455268e-12	-2.148271e-10
0.0108        7.479781e-11	6.085851e-13	-2.142185e-10
0.0109        7.922193e-11	1.114969e-12	-2.131035e-10
0.011         8.003443e-11	1.339227e-12	-2.117643e-10
0.0111        8.043225e-11	1.891036e-12	-2.098733e-10
0.0112        7.059123e-11	1.016888e-12	-2.088564e-10
0.0113        7.566081e-11	1.710294e-12	-2.071461e-10
0.0114        7.552642e-11	8.869524e-13	-2.062591e-10
0.0115        7.734514e-11	2.072853e-12	-2.041863e-10
0.0116        8.079366e-11	1.525343e-12	-2.026609e-10
0.0117        7.718495e-11	1.071284e-12	-2.015896e-10
0.0118        7.945866e-11	9.103018e-13	-2.006793e-10
0.0119        7.319188e-11	9.958124e-13	-1.996835e-10
0.012         7.710855e-11	1.219263e-12	-1.984643e-10
0.0121        7.777422e-11	1.236474e-12	-1.972278e-10
0.0122        7.443208e-11	1.157422e-12	-1.960704e-10
0.0123        8.014857e-11	6.763321e-13	-1.953940e-10
0.0124        7.545833e-11	8.536843e-13	-1.945404e-10
0.0125        7.851870e-11	1.020040e-12	-1.935203e-10
0.0126        8.037605e-11	1.311101e-12	-1.922092e-10
0.0127        7.705348e-11	-2.581034e-12	-1.947903e-10
0.0128        6.935362e-11	9.040990e-13	-1.938862e-10
0.0129        7.715644e-11	7.390487e-13	-1.931471e-10
0.013         7.673140e-11	-5.420698e-14	-1.932013e-10
0.0131        7.644132e-11	3.519706e-12	-1.896816e-10
0.0132        7.825257e-11	1.036671e-12	-1.886449e-10
0.0133        7.239711e-11	1.021392e-12	-1.876235e-10
0.0134        7.163421e-11	1.144329e-12	-1.864792e-10
0.0135        7.497715e-11	-5.178901e-13	-1.869971e-10
0.0136        7.696306e-11	2.020892e-12	-1.849762e-10
0.0137        7.160733e-11	6.990846e-13	-1.842771e-10
0.0138        7.802884e-11	-5.656925e-12	-1.899341e-10
0.0139        7.340440e-11	6.916958e-13	-1.892424e-10
0.014         7.817356e-11	8.986621e-15	-1.892334e-10
0.0141        7.788103e-11	2.300650e-12	-1.869327e-10
0.0142        7.955603e-11	1.271842e-12	-1.856609e-10
0.0143        7.657006e-11	2.302214e-13	-1.854307e-10
0.0144        7.886265e-11	2.068042e-12	-1.833626e-10
0.0145        7.456602e-11	5.917870e-13	-1.827708e-10
0.0146        6.911851e-11	3.015764e-12	-1.797551e-10
0.0147        7.259298e-11	2.834897e-12	-1.769202e-10
0.0148        7.854400e-11	4.547495e-13	-1.764654e-10
0.0149        7.420465e-11	-1.199572e-12	-1.776650e-10
0.015         7.213427e-11	2.441279e-13	-1.774209e-10
0.0151        7.533521e-11	1.895870e-12	-1.755250e-10
0.0152        7.804210e-11	4.392875e-13	-1.750857e-10
0.0153        7.750497e-11	2.289410e-12	-1.727963e-10
0.0154        7.470164e-11	-7.812359e-12	-1.806087e-10
0.0155        7.635901e-11	1.761638e-12	-1.788470e-10
0.0156        7.682781e-11	-4.012165e-13	-1.792482e-10
0.0157        6.790842e-11	2.066002e-13	-1.790416e-10
0.0158        7.256216e-11	-2.409454e-12	-1.814511e-10
0.0159        7.231785e-11	1.454177e-12	-1.799969e-10
0.016         7.033718e-11	2.298041e-12	-1.776989e-10
0.0161        7.462515e-11	2.282417e-12	-1.754164e-10
0.0162        7.749189e-11	1.180537e-12	-1.742359e-10
0.0163        7.689739e-11	2.860132e-13	-1.739499e-10
0.0164        7.159432e-11	4.866055e-12	-1.690838e-10
0.0165        6.381619e-11	7.604190e-13	-1.683234e-10
0.0166        6.640896e-11	1.817976e-12	-1.665055e-10
0.0167        7.738093e-11	9.607082e-13	-1.655447e-10
0.0168        6.398196e-11	1.751170e-12	-1.637936e-10
0.0169        6.845110e-11	1.199449e-12	-1.625941e-10
0.017         7.331300e-11	6.897250e-13	-1.619044e-10
0.0171        7.177519e-11	5.162517e-13	-1.613881e-10
0.0172        6.987895e-11	4.867947e-13	-1.609014e-10
0.0173        7.235360e-11	-8.064134e-14	-1.609820e-10
0.0174        6.346258e-11	-3.127014e-12	-1.641090e-10
0.0175        7.633742e-11	1.653658e-12	-1.624553e-10
0.0176        7.535071e-11	1.791838e-12	-1.606635e-10
0.0177        7.520665e-11	9.398300e-13	-1.597237e-10
0.0178        7.346736e-11	3.837507e-12	-1.558862e-10
0.0179        6.886665e-11	2.019558e-12	-1.538666e-10
0.018         7.473348e-11	-1.191681e-12	-1.550583e-10
0.0181        7.457198e-11	3.134784e-13	-1.547448e-10
0.0182        7.470306e-11	-1.365644e-12	-1.561105e-10
0.0183        7.226926e-11	1.411987e-12	-1.546985e-10
0.0184        7.742226e-11	2.161402e-12	-1.525371e-10
0.0185        7.813319e-11	2.315271e-12	-1.502218e-10
0.0186        7.194188e-11	-3.191591e-13	-1.505410e-10
0.0187        7.844000e-11	-6.358909e-13	-1.511769e-10
0.0188        6.707428e-11	1.747496e-12	-1.494294e-10
0.0189        7.346115e-11	2.307284e-13	-1.491986e-10
0.019         7.421126e-11	1.763445e-12	-1.474352e-10
0.0191        7.466133e-11	8.837383e-13	-1.465514e-10
0.0192        7.587692e-11	-1.733774e-11	-1.638892e-10
0.0193        7.262192e-11	-1.926794e-12	-1.658160e-10
0.0194        7.714594e-11	1.678244e-12	-1.641377e-10
0.0195        6.962476e-11	-3.445863e-12	-1.675836e-10
0.0196        7.799576e-11	-1.275063e-12	-1.688587e-10
0.0197        7.623136e-11	-6.355320e-13	-1.694942e-10
0.0198        7.326661e-11	-2.752506e-13	-1.697694e-10
0.0199        6.372301e-11	-1.523247e-13	-1.699218e-10
0.02          7.042603e-11	-1.237625e-12	-1.711594e-10
0.0201        7.325789e-11	1.703885e-13	-1.709890e-10
0.0202        7.637910e-11	3.608330e-12	-1.673807e-10
0.0203        7.574047e-11	-8.777146e-13	-1.682584e-10
0.0204        7.333545e-11	1.538619e-13	-1.681045e-10
0.0205        7.396579e-11	-1.044784e-11	-1.785524e-10
0.0206        7.696167e-11	2.721274e-12	-1.758311e-10
0.0207        7.515087e-11	5.477091e-13	-1.752834e-10
0.0208        7.083703e-11	-4.911253e-12	-1.801946e-10
0.0209        7.258169e-11	-6.312733e-13	-1.808259e-10
0.021         7.627012e-11	-1.174225e-12	-1.820001e-10
0.0211        7.402602e-11	1.888608e-13	-1.818113e-10
0.0212        7.135714e-11	-5.853658e-14	-1.818698e-10
0.0213        7.468926e-11	-1.111807e-12	-1.829816e-10
0.0214        7.390607e-11	-8.089881e-13	-1.837906e-10
0.0215        7.037557e-11	-7.234417e-13	-1.845141e-10
0.0216        7.662126e-11	1.914334e-13	-1.843226e-10
0.0217        6.781232e-11	-2.251334e-13	-1.845478e-10
0.0218        7.537721e-11	-8.810494e-12	-1.933582e-10
0.0219        7.361142e-11	-2.314939e-12	-1.956732e-10
0.022         7.420516e-11	4.904818e-13	-1.951827e-10
0.0221        7.179972e-11	-1.101098e-11	-2.061937e-10
0.0222        7.840478e-11	-8.460150e-12	-2.146538e-10
0.0223        7.667059e-11	-5.663366e-12	-2.203172e-10
0.0224        7.830056e-11	-2.690242e-13	-2.205862e-10
0.0225        7.716073e-11	-1.154695e-11	-2.321332e-10
0.0226        6.927383e-11	-8.491316e-12	-2.406245e-10
0.0227        7.626237e-11	-8.193705e-12	-2.488182e-10
0.0228        7.200607e-11	-6.624328e-12	-2.554425e-10
0.0229        7.656929e-11	-6.837682e-13	-2.561263e-10
0.023         7.704467e-11	4.730681e-13	-2.556532e-10
0.0231        7.142990e-11	-1.012898e-11	-2.657822e-10
0.0232        7.450708e-11	-8.295692e-12	-2.740779e-10
0.0233        7.418018e-11	-1.038536e-11	-2.844632e-10
0.0234        7.898204e-11	-7.554071e-12	-2.920173e-10
0.0235        7.259676e-11	-1.015784e-11	-3.021752e-10
0.0236        7.366017e-11	-8.046705e-12	-3.102219e-10
0.0237        7.792201e-11	-6.842896e-12	-3.170648e-10
0.0238        7.442372e-11	2.722909e-12	-3.143419e-10
0.0239        7.464015e-11	-9.205003e-13	-3.152624e-10
0.024         7.774550e-11	-7.086892e-12	-3.223492e-10
0.0241        8.006266e-11	-5.901598e-12	-3.282508e-10
0.0242        7.777477e-11	5.780926e-13	-3.276728e-10
0.0243        7.682716e-11	-1.834617e-12	-3.295074e-10
0.0244        7.792129e-11	-1.092377e-11	-3.404311e-10
0.0245        7.172287e-11	-6.922833e-12	-3.473540e-10
0.0246        7.655815e-11	-8.459806e-12	-3.558138e-10
0.0247        7.720680e-11	-5.579851e-12	-3.613936e-10
0.0248        7.510012e-11	-6.634829e-12	-3.680285e-10
0.0249        7.092213e-11	-9.797743e-12	-3.778262e-10
0.025         7.312204e-11	-5.062629e-12	-3.828888e-10
0.0251        7.806944e-11	-3.657364e-12	-3.865462e-10
0.0252        7.756452e-11	-6.809541e-12	-3.933557e-10
0.0253        7.609938e-11	-6.089671e-12	-3.994454e-10
0.0254        7.525539e-11	-9.003507e-12	-4.084489e-10
0.0255        7.753445e-11	-2.377914e-12	-4.108268e-10
0.0256        7.296338e-11	-6.636565e-13	-4.114905e-10
0.0257        7.440526e-11	-5.433779e-12	-4.169243e-10
0.0258        7.948941e-11	-3.773381e-12	-4.206976e-10
0.0259        7.394605e-11	-5.601054e-12	-4.262987e-10
0.026         7.675034e-11	-9.765641e-12	-4.360643e-10
0.0261        8.072082e-11	-6.374456e-12	-4.424388e-10
0.0262        7.935284e-11	-6.400766e-12	-4.488396e-10
0.0263        8.134406e-11	-1.078185e-11	-4.596214e-10
0.0264        7.941059e-11	3.796839e-12	-4.558246e-10
0.0265        7.769102e-11	-1.379843e-12	-4.572044e-10
0.0266        7.114915e-11	1.954928e-14	-4.571849e-10
0.0267        8.061987e-11	-4.409373e-12	-4.615942e-10
0.0268        7.518503e-11	-4.940903e-12	-4.665351e-10
0.0269        7.948915e-11	-7.009568e-12	-4.735447e-10
0.027         7.288589e-11	-2.910105e-12	-4.764548e-10
0.0271        7.850167e-11	-9.680483e-12	-4.861353e-10
0.0272        7.848599e-11	-1.569099e-11	-5.018263e-10
0.0273        7.893591e-11	-5.984347e-12	-5.078106e-10
0.0274        7.874239e-11	-5.158487e-12	-5.129691e-10
0.0275        7.980833e-11	-2.443137e-12	-5.154123e-10
0.0276        7.447359e-11	-5.571212e-12	-5.209835e-10
0.0277        8.339115e-11	-2.641698e-12	-5.236252e-10
0.0278        8.055322e-11	-5.831283e-12	-5.294565e-10
0.0279        7.836230e-11	-5.827027e-12	-5.352835e-10
0.028         8.199813e-11	-3.054106e-12	-5.383376e-10
0.0281        8.235804e-11	-1.799096e-11	-5.563285e-10
0.0282        8.388499e-11	7.343086e-13	-5.555942e-10
0.0283        7.275556e-11	-9.518547e-12	-5.651128e-10
0.0284        8.283469e-11	-8.561257e-12	-5.736740e-10
0.0285        8.304864e-11	-1.863599e-12	-5.755376e-10
0.0286        7.853719e-11	-9.132866e-12	-5.846705e-10
0.0287        8.089458e-11	-1.553427e-11	-6.002048e-10
0.0288        8.336901e-11	-1.618891e-11	-6.163937e-10
0.0289        8.059032e-11	-1.696009e-11	-6.333538e-10
0.029         7.165328e-11	-1.877623e-12	-6.352314e-10
0.0291        8.237209e-11	-1.126837e-12	-6.363582e-10
0.0292        8.439590e-11	-1.400814e-11	-6.503664e-10
0.0293        7.558314e-11	1.444069e-12	-6.489223e-10
0.0294        7.394768e-11	-3.268115e-12	-6.521904e-10
0.0295        7.971966e-11	-1.751912e-11	-6.697095e-10
0.0296        7.951157e-11	-1.391783e-11	-6.836274e-10
0.0297        8.496819e-11	-1.846772e-11	-7.020951e-10
0.0298        8.182893e-11	-8.038066e-13	-7.028989e-10
0.0299        8.500932e-11	4.103256e-12	-6.987956e-10
0.03          8.631962e-11	-1.825399e-11	-7.170496e-10
0.0301        8.025340e-11	5.682677e-12	-7.113670e-10
0.0302        8.126806e-11	-2.101395e-12	-7.134683e-10
0.0303        8.485976e-11	-4.053401e-12	-7.175217e-10
0.0304        8.052193e-11	-1.448185e-11	-7.320036e-10
0.0305        8.532696e-11	-1.509797e-11	-7.471016e-10
0.0306        7.513036e-11	-2.570409e-12	-7.496720e-10
0.0307        8.331322e-11	-1.279350e-15	-7.496733e-10
0.0308        7.985972e-11	9.138247e-13	-7.487594e-10
0.0309        8.230565e-11	7.589437e-13	-7.480005e-10
0.031         8.788625e-11	1.077207e-12	-7.469233e-10
0.0311        8.041278e-11	1.812579e-12	-7.451107e-10
0.0312        8.439184e-11	-1.787028e-11	-7.629810e-10
0.0313        8.184614e-11	-1.208013e-11	-7.750611e-10
0.0314        8.245176e-11	8.625765e-13	-7.741985e-10
0.0315        8.670943e-11	2.488036e-13	-7.739497e-10
0.0316        9.040688e-11	-3.264376e-14	-7.739824e-10
0.0317        8.550052e-11	3.005343e-12	-7.709770e-10
0.0318        8.500031e-11	3.865030e-12	-7.671120e-10
0.0319        8.554046e-11	3.745841e-12	-7.633662e-10
0.032         8.526552e-11	4.288767e-12	-7.590774e-10
0.0321        9.205707e-11	3.664421e-12	-7.554130e-10
0.0322        9.195652e-11	-7.232386e-12	-7.626454e-10
0.0323        9.034206e-11	6.405941e-14	-7.625813e-10
0.0324        9.319276e-11	-1.697605e-11	-7.795574e-10
0.0325        8.643053e-11	-1.826919e-11	-7.978265e-10
0.0326        9.098469e-11	3.833825e-12	-7.939927e-10
0.0327        9.189875e-11	4.019974e-12	-7.899727e-10
0.0328        9.038800e-11	-1.674811e-12	-7.916476e-10
0.0329        9.438074e-11	7.518225e-13	-7.908957e-10
0.033         8.700795e-11	6.014531e-12	-7.848812e-10
0.0331        9.586292e-11	3.596929e-12	-7.812843e-10
0.0332        9.176650e-11	-1.270706e-12	-7.825550e-10
0.0333        8.519003e-11	-2.830431e-13	-7.828380e-10
0.0334        9.074200e-11	1.446350e-12	-7.813917e-10
0.0335        8.799307e-11	6.356933e-12	-7.750347e-10
0.0336        9.552064e-11	1.100084e-12	-7.739347e-10
0.0337        9.431472e-11	-2.102668e-12	-7.760373e-10
0.0338        9.708971e-11	4.678573e-12	-7.713587e-10
0.0339        8.333407e-11	-4.287372e-13	-7.717875e-10
0.034         9.890527e-11	-1.102928e-11	-7.828168e-10
0.0341        9.639279e-11	-1.577853e-11	-7.985953e-10
0.0342        9.019138e-11	-4.558796e-12	-8.031541e-10
0.0343        9.946451e-11	6.892421e-12	-7.962617e-10
0.0344        9.935062e-11	-1.403679e-11	-8.102985e-10
0.0345        1.000714e-10	-5.123122e-12	-8.154216e-10
0.0346        9.931929e-11	-1.255459e-11	-8.279762e-10
0.0347        8.770770e-11	2.673835e-13	-8.277088e-10
0.0348        1.007233e-10	-1.288965e-11	-8.405984e-10
0.0349        9.521887e-11	-4.786080e-12	-8.453845e-10
0.035         1.013086e-10	-1.640453e-11	-8.617891e-10
0.0351        9.798194e-11	-7.201128e-12	-8.689902e-10
0.0352        9.668384e-11	-8.795488e-12	-8.777857e-10
0.0353        9.500591e-11	-8.231205e-12	-8.860169e-10
0.0354        9.597334e-11	3.696319e-13	-8.856472e-10
0.0355        9.650961e-11	-1.125698e-11	-8.969042e-10
0.0356        9.900024e-11	2.178909e-12	-8.947253e-10
0.0357        1.026850e-10	-1.288933e-11	-9.076146e-10
0.0358        9.357722e-11	-6.243289e-12	-9.138579e-10
0.0359        9.417239e-11	-1.041126e-11	-9.242692e-10
0.036         9.961530e-11	4.177954e-12	-9.200912e-10
0.0361        1.018259e-10	-1.370507e-11	-9.337963e-10
0.0362        9.619150e-11	-7.426018e-12	-9.412223e-10
0.0363        9.360388e-11	-1.048905e-11	-9.517114e-10
0.0364        1.027025e-10	-4.906693e-12	-9.566181e-10
0.0365        1.019854e-10	-3.122743e-12	-9.597408e-10
0.0366        9.813527e-11	2.046204e-12	-9.576946e-10
0.0367        1.034124e-10	9.092237e-14	-9.576037e-10
0.0368        9.983899e-11	4.134598e-12	-9.534691e-10
0.0369        9.770321e-11	1.024922e-12	-9.524442e-10
0.037         1.025083e-10	1.197644e-11	-9.404677e-10
0.0371        1.022465e-10	2.116834e-12	-9.383509e-10
0.0372        1.022509e-10	1.897610e-12	-9.364533e-10
0.0373        9.998109e-11	2.430569e-13	-9.362102e-10
0.0374        9.537223e-11	9.247391e-12	-9.269628e-10
0.0375        1.026458e-10	1.677900e-12	-9.252849e-10
0.0376        9.901967e-11	8.350941e-12	-9.169340e-10
0.0377        9.885079e-11	9.098287e-12	-9.078357e-10
0.0378        1.004703e-10	1.369199e-11	-8.941437e-10
0.0379        1.015951e-10	9.875607e-12	-8.842681e-10
0.038         9.469451e-11	1.661416e-11	-8.676540e-10
0.0381        1.034068e-10	2.049259e-11	-8.471614e-10
0.0382        9.634481e-11	1.808370e-11	-8.290777e-10
0.0383        1.025218e-10	1.826194e-11	-8.108157e-10
0.0384        9.857896e-11	1.754284e-11	-7.932729e-10
0.0385        1.004429e-10	1.971192e-11	-7.735610e-10
0.0386        1.033118e-10	1.847570e-11	-7.550853e-10
0.0387        8.697583e-11	9.972460e-13	-7.540880e-10
0.0388        1.017740e-10	-3.679586e-12	-7.577676e-10
0.0389        1.033750e-10	2.180569e-11	-7.359619e-10
0.039         1.011674e-10	1.783232e-11	-7.181296e-10
0.0391        9.344300e-11	-4.389491e-12	-7.225191e-10
0.0392        9.876773e-11	1.959908e-11	-7.029200e-10
0.0393        8.647751e-11	5.493783e-13	-7.023706e-10
0.0394        9.748793e-11	-1.499441e-12	-7.038701e-10
0.0395        1.025685e-10	2.880809e-11	-6.750620e-10
0.0396        1.028575e-10	1.967428e-11	-6.553877e-10
0.0397        9.430691e-11	-1.313660e-12	-6.567014e-10
0.0398        1.022100e-10	1.766037e-11	-6.390410e-10
0.0399        1.028743e-10	2.745857e-11	-6.115824e-10
0.04          1.004795e-10	-1.443227e-12	-6.130257e-10
0.0401        1.018338e-10	1.714551e-11	-5.958801e-10
0.0402        9.615305e-11	2.652146e-11	-5.693587e-10
0.0403        9.728565e-11	-2.929281e-12	-5.722880e-10
0.0404        9.929347e-11	3.642645e-11	-5.358615e-10
0.0405        9.448523e-11	2.540416e-11	-5.104573e-10
0.0406        9.227251e-11	2.363356e-11	-4.868238e-10
0.0407        9.554635e-11	2.532983e-11	-4.614940e-10
0.0408        9.730781e-11	2.847333e-11	-4.330206e-10
0.0409        8.035956e-11	3.038244e-13	-4.327168e-10
0.041         9.699078e-11	3.484219e-11	-3.978746e-10
0.0411        8.954391e-11	2.537728e-11	-3.724973e-10
0.0412        9.214132e-11	-1.958724e-12	-3.744560e-10
0.0413        7.704095e-11	2.704934e-13	-3.741856e-10
0.0414        9.132374e-11	2.134332e-11	-3.528422e-10
0.0415        7.733645e-11	2.031986e-13	-3.526390e-10
0.0416        7.553183e-11	-4.408245e-14	-3.526831e-10
0.0417        8.063931e-11	2.180302e-11	-3.308801e-10
0.0418        7.215702e-11	8.440182e-14	-3.307957e-10
0.0419        7.177533e-11	-2.633944e-13	-3.310591e-10
0.042         7.306866e-11	1.136419e-13	-3.309454e-10
0.0421        7.605181e-11	2.120593e-11	-3.097395e-10
0.0422        8.849591e-11	2.654200e-11	-2.831975e-10
0.0423        8.727861e-11	2.744643e-11	-2.557511e-10
0.0424        7.825606e-11	2.147951e-11	-2.342716e-10
0.0425        1.003207e-10	-3.055648e-13	-2.345771e-10
0.0426        6.639285e-11	-3.657013e-13	-2.349428e-10
0.0427        7.647919e-11	1.760209e-11	-2.173407e-10
0.0428        1.003433e-10	-5.995680e-13	-2.179403e-10
0.0429        6.411630e-11	-4.426526e-13	-2.183830e-10
0.043         7.330228e-11	1.724160e-11	-2.011414e-10
0.0431        9.599453e-11	-7.499863e-13	-2.018914e-10
0.0432        6.403547e-11	-6.620465e-13	-2.025534e-10
0.0433        7.006102e-11	2.001360e-11	-1.825398e-10
0.0434        9.564080e-11	-4.340719e-13	-1.829739e-10
0.0435        9.290295e-11	-7.966930e-13	-1.837706e-10
0.0436        9.723901e-11	-5.384154e-13	-1.843090e-10
0.0437        9.515626e-11	-7.964059e-13	-1.851054e-10
0.0438        7.165014e-11	1.747443e-11	-1.676309e-10
0.0439        8.722383e-11	-8.293012e-13	-1.684603e-10
0.044         8.895773e-11	-8.131603e-13	-1.692734e-10
0.0441        7.251206e-11	1.370876e-11	-1.555647e-10
0.0442        6.645949e-11	-1.136371e-12	-1.567010e-10
0.0443        6.256014e-11	-1.007859e-12	-1.577089e-10
0.0444        9.850849e-11	1.427544e-11	-1.434334e-10
0.0445        6.601867e-11	1.815552e-11	-1.252779e-10
0.0446        9.958997e-11	1.866209e-11	-1.066158e-10
0.0447        9.596336e-11	2.066844e-12	-1.045490e-10
0.0448        9.791830e-11	-1.188690e-12	-1.057377e-10
0.0449        9.897294e-11	1.553010e-11	-9.020758e-11
0.045         9.459381e-11	1.774078e-12	-8.843350e-11
0.0451        9.720519e-11	1.891966e-11	-6.951385e-11
0.0452        9.480850e-11	1.935109e-12	-6.757874e-11
0.0453        9.154995e-11	2.153087e-12	-6.542565e-11
0.0454        9.797095e-11	9.878490e-12	-5.554716e-11
0.0455        9.899774e-11	1.511789e-11	-4.042927e-11
0.0456        9.362766e-11	1.769743e-11	-2.273184e-11
0.0457        9.521015e-11	1.466340e-11	-8.068438e-12
0.0458        9.921312e-11	1.850391e-11	1.043547e-11
0.0459        9.774127e-11	1.116358e-11	2.159905e-11
0.046         9.625636e-11	1.401636e-11	3.561541e-11
0.0461        9.833996e-11	1.682132e-11	5.243673e-11
0.0462        9.617213e-11	5.450477e-12	5.788721e-11
0.0463        9.078475e-11	5.623623e-13	5.844957e-11
0.0464        9.535611e-11	9.327391e-12	6.777696e-11
0.0465        9.324350e-11	-8.778355e-14	6.768918e-11
0.0466        9.711307e-11	1.307953e-11	8.076871e-11
0.0467        9.776483e-11	3.945545e-12	8.471426e-11
0.0468        9.537817e-11	-2.352672e-12	8.236158e-11
0.0469        9.063687e-11	-1.803266e-12	8.055832e-11
0.047         8.729114e-11	5.037429e-12	8.559575e-11
0.0471        9.263493e-11	9.997064e-12	9.559281e-11
0.0472        9.158326e-11	1.524897e-11	1.108418e-10
0.0473        9.248121e-11	-7.935585e-14	1.107624e-10
0.0474        9.100428e-11	9.080581e-12	1.198430e-10
0.0475        8.872484e-11	1.749734e-11	1.373403e-10
0.0476        9.293025e-11	8.432418e-14	1.374247e-10
0.0477        8.422246e-11	8.809426e-12	1.462341e-10
0.0478        9.446362e-11	2.085837e-11	1.670925e-10
0.0479        9.914052e-11	2.154013e-11	1.886326e-10
0.048         9.582469e-11	9.197869e-12	1.978305e-10
0.0481        9.362451e-11	5.540578e-12	2.033710e-10
0.0482        9.369867e-11	4.239549e-12	2.076106e-10
0.0483        9.518549e-11	3.113369e-12	2.107240e-10
0.0484        9.834935e-11	5.110815e-12	2.158348e-10
0.0485        8.400409e-11	-7.600300e-13	2.150747e-10
0.0486        9.906617e-11	-1.542333e-11	1.996514e-10
0.0487        9.462225e-11	-1.412223e-11	1.855292e-10
0.0488        9.841830e-11	-6.171801e-12	1.793574e-10
0.0489        9.350415e-11	6.211282e-12	1.855687e-10
0.049         9.578417e-11	-2.439317e-12	1.831294e-10
0.0491        8.986826e-11	-1.141328e-11	1.717161e-10
0.0492        8.794417e-11	-1.341608e-11	1.583000e-10
0.0493        9.776880e-11	-1.779253e-12	1.565207e-10
0.0494        9.648473e-11	8.330635e-12	1.648514e-10
0.0495        9.793267e-11	-5.781297e-12	1.590701e-10
0.0496        9.244100e-11	-1.587604e-11	1.431940e-10
0.0497        8.864350e-11	-1.424807e-11	1.289460e-10
0.0498        9.741305e-11	-9.468384e-13	1.279991e-10
0.0499        9.077437e-11	1.324488e-11	1.412440e-10
0.05          8.656614e-11	-6.234370e-12	1.350097e-10
0.0501        9.601577e-11	2.593409e-13	1.352690e-10
0.0502        9.583957e-11	1.325406e-11	1.485231e-10
0.0503        9.701085e-11	-5.719121e-12	1.428039e-10
0.0504        9.640396e-11	8.606251e-14	1.428900e-10
0.0505        9.746275e-11	1.307516e-11	1.559652e-10
0.0506        9.946033e-11	-5.571023e-12	1.503941e-10
0.0507        9.920721e-11	-8.635306e-13	1.495306e-10
0.0508        9.607523e-11	1.224036e-11	1.617710e-10
0.0509        8.594655e-11	-5.747584e-12	1.560234e-10
0.051         9.929030e-11	-1.141126e-12	1.548822e-10
0.0511        9.568762e-11	4.544685e-12	1.594269e-10
0.0512        8.636494e-11	-4.803333e-12	1.546236e-10
0.0513        9.276448e-11	-7.862252e-12	1.467613e-10
0.0514        8.685232e-11	-7.377585e-12	1.393838e-10
0.0515        9.314031e-11	5.177945e-12	1.445617e-10
0.0516        8.794531e-11	-4.686814e-12	1.398749e-10
0.0517        9.195126e-11	-4.305641e-12	1.355693e-10
0.0518        8.874483e-11	2.755269e-13	1.358448e-10
0.0519        9.370676e-11	1.048451e-11	1.463293e-10
0.052         9.069702e-11	-5.291442e-12	1.410378e-10
0.0521        9.588892e-11	-6.695272e-12	1.343426e-10
0.0522        8.860583e-11	-5.386818e-12	1.289558e-10
0.0523        8.835618e-11	2.741138e-12	1.316969e-10
0.0524        8.929294e-11	5.197590e-12	1.368945e-10
0.0525        8.923576e-11	-4.565717e-12	1.323288e-10
0.0526        9.932845e-11	-1.337159e-11	1.189572e-10
0.0527        9.167056e-11	-2.740408e-12	1.162168e-10
0.0528        9.015895e-11	7.301718e-12	1.235185e-10
0.0529        9.006420e-11	-4.890456e-12	1.186280e-10
0.053         9.258040e-11	-6.141067e-12	1.124870e-10
0.0531        9.047357e-11	-1.548890e-12	1.109381e-10
0.0532        9.717100e-11	6.259912e-12	1.171980e-10
0.0533        9.445980e-11	-5.146498e-12	1.120515e-10
0.0534        9.579488e-11	-1.342509e-11	9.862639e-11
0.0535        8.917285e-11	-3.802497e-12	9.482389e-11
0.0536        9.250199e-11	9.626724e-12	1.044506e-10
0.0537        9.475070e-11	-5.552955e-12	9.889766e-11
0.0538        9.357891e-11	-7.209007e-12	9.168865e-11
0.0539        9.031816e-11	-1.733386e-12	8.995527e-11
0.054         9.242512e-11	6.443795e-12	9.639906e-11
0.0541        8.888092e-11	-5.115497e-12	9.128357e-11
0.0542        9.707388e-11	-1.184580e-11	7.943777e-11
0.0543        8.200634e-11	-4.497347e-12	7.494042e-11
0.0544        8.534771e-11	7.444690e-12	8.238511e-11
0.0545        9.207358e-11	-5.127734e-12	7.725737e-11
0.0546        9.000341e-11	-1.212852e-11	6.512885e-11
0.0547        8.348767e-11	-2.108179e-12	6.302067e-11
0.0548        9.536338e-11	4.925416e-12	6.794609e-11
0.0549        9.352351e-11	-4.698258e-12	6.324783e-11
0.055         9.394340e-11	-1.342436e-11	4.982347e-11
0.0551        9.714209e-11	-3.484358e-12	4.633911e-11